n -t * -s 0  -x 96 -y 110 -Z 0 -z 20  -v circle -c green
n -t * -s 1  -x 70 -y 391 -Z 0 -z 20  -v circle -c green
n -t * -s 2  -x 495 -y 417 -Z 0 -z 20  -v circle -c green
n -t * -s 3  -x 405 -y 490 -Z 0 -z 20  -v circle -c green
n -t * -s 4  -x 431 -y 343 -Z 0 -z 20  -v circle -c green
n -t * -s 5  -x 243 -y 288 -Z 0 -z 20  -v circle -c green
n -t * -s 6  -x 17 -y 92 -Z 0 -z 20  -v circle -c green
n -t * -s 7  -x 345 -y 306 -Z 0 -z 20  -v circle -c green
n -t * -s 8  -x 38 -y 111 -Z 0 -z 20  -v circle -c green
n -t * -s 9  -x 347 -y 442 -Z 0 -z 20  -v circle -c green
n -t * -s 10  -x 95 -y 91 -Z 0 -z 20  -v circle -c green
n -t * -s 11  -x 182 -y 171 -Z 0 -z 20  -v circle -c green
n -t * -s 12  -x 159 -y 216 -Z 0 -z 20  -v circle -c green
n -t * -s 13  -x 123 -y 355 -Z 0 -z 20  -v circle -c green
n -t * -s 14  -x 27 -y 268 -Z 0 -z 20  -v circle -c green
n -t * -s 15  -x 231 -y 351 -Z 0 -z 20  -v circle -c green
n -t * -s 16  -x 147 -y 64 -Z 0 -z 20  -v circle -c green
n -t * -s 17  -x 77 -y 192 -Z 0 -z 20  -v circle -c green
n -t * -s 18  -x 483 -y 52 -Z 0 -z 20  -v circle -c green
n -t * -s 19  -x 193 -y 427 -Z 0 -z 20  -v circle -c green
n -t * -s 20  -x 382 -y 434 -Z 0 -z 20  -v circle -c green
n -t * -s 21  -x 277 -y 103 -Z 0 -z 20  -v circle -c green
n -t * -s 22  -x 184 -y 106 -Z 0 -z 20  -v circle -c green
n -t * -s 23  -x 229 -y 456 -Z 0 -z 20  -v circle -c green
n -t * -s 24  -x 426 -y 433 -Z 0 -z 20  -v circle -c green
n -t * -s 25  -x 329 -y 250 -Z 0 -z 20  -v circle -c green
n -t * -s 26  -x 98 -y 381 -Z 0 -z 20  -v circle -c green
n -t * -s 27  -x 158 -y 325 -Z 0 -z 20  -v circle -c green
n -t * -s 28  -x 64 -y 235 -Z 0 -z 20  -v circle -c green
n -t * -s 29  -x 4 -y 424 -Z 0 -z 20  -v circle -c green
n -t * -s 30  -x 166 -y 494 -Z 0 -z 20  -v circle -c green
n -t * -s 31  -x 98 -y 124 -Z 0 -z 20  -v circle -c green
n -t * -s 32  -x 482 -y 32 -Z 0 -z 20  -v circle -c green
n -t * -s 33  -x 264 -y 477 -Z 0 -z 20  -v circle -c green
n -t * -s 34  -x 473 -y 234 -Z 0 -z 20  -v circle -c green
n -t * -s 35  -x 39 -y 25 -Z 0 -z 20  -v circle -c green
n -t * -s 36  -x 429 -y 31 -Z 0 -z 20  -v circle -c green
n -t * -s 37  -x 490 -y 422 -Z 0 -z 20  -v circle -c green
n -t * -s 38  -x 317 -y 156 -Z 0 -z 20  -v circle -c green
n -t * -s 39  -x 108 -y 474 -Z 0 -z 20  -v circle -c green
V -t * -v 1.0a5 -a 0
W -t * -x 500 -y 500
A -t * -n 1 -p 0 -o 0x7fffffff -c 30 -a 1
A -t * -h 1 -m 1073741823 -s 0
+ -t 1.000000000 -s 20 -d -1 -p tcp -e 40 -c 2 -a 0 -i 0 -k AGT 
- -t 1.000000000 -s 20 -d -1 -p tcp -e 40 -c 2 -a 0 -i 0 -k AGT
h -t 1.000000000 -s 20 -d -1 -p tcp -e 40 -c 2 -a 0 -i 0 -k AGT
+ -t 1.000000000 -s 20 -d -1 -p tcp -e 40 -c 2 -a 0 -i 1 -k AGT 
- -t 1.000000000 -s 20 -d -1 -p tcp -e 40 -c 2 -a 0 -i 1 -k AGT
h -t 1.000000000 -s 20 -d -1 -p tcp -e 40 -c 2 -a 0 -i 1 -k AGT
+ -t 1.000000000 -s 20 -d -1 -p tcp -e 40 -c 2 -a 0 -i 2 -k AGT 
- -t 1.000000000 -s 20 -d -1 -p tcp -e 40 -c 2 -a 0 -i 2 -k AGT
h -t 1.000000000 -s 20 -d -1 -p tcp -e 40 -c 2 -a 0 -i 2 -k AGT
+ -t 1.000000000 -s 20 -d -1 -p tcp -e 40 -c 2 -a 0 -i 3 -k AGT 
- -t 1.000000000 -s 20 -d -1 -p tcp -e 40 -c 2 -a 0 -i 3 -k AGT
h -t 1.000000000 -s 20 -d -1 -p tcp -e 40 -c 2 -a 0 -i 3 -k AGT
+ -t 1.000000000 -s 20 -d -1 -p tcp -e 40 -c 2 -a 0 -i 4 -k AGT 
- -t 1.000000000 -s 20 -d -1 -p tcp -e 40 -c 2 -a 0 -i 4 -k AGT
h -t 1.000000000 -s 20 -d -1 -p tcp -e 40 -c 2 -a 0 -i 4 -k AGT
+ -t 1.000000000 -s 20 -d -1 -p tcp -e 40 -c 2 -a 0 -i 5 -k AGT 
- -t 1.000000000 -s 20 -d -1 -p tcp -e 40 -c 2 -a 0 -i 5 -k AGT
h -t 1.000000000 -s 20 -d -1 -p tcp -e 40 -c 2 -a 0 -i 5 -k AGT
+ -t 1.000000000 -s 20 -d -1 -p tcp -e 40 -c 2 -a 0 -i 6 -k AGT 
- -t 1.000000000 -s 20 -d -1 -p tcp -e 40 -c 2 -a 0 -i 6 -k AGT
h -t 1.000000000 -s 20 -d -1 -p tcp -e 40 -c 2 -a 0 -i 6 -k AGT
+ -t 1.000000000 -s 20 -d -1 -p tcp -e 40 -c 2 -a 0 -i 7 -k AGT 
- -t 1.000000000 -s 20 -d -1 -p tcp -e 40 -c 2 -a 0 -i 7 -k AGT
h -t 1.000000000 -s 20 -d -1 -p tcp -e 40 -c 2 -a 0 -i 7 -k AGT
+ -t 1.000000000 -s 20 -d -1 -p tcp -e 40 -c 2 -a 0 -i 8 -k AGT 
- -t 1.000000000 -s 20 -d -1 -p tcp -e 40 -c 2 -a 0 -i 8 -k AGT
h -t 1.000000000 -s 20 -d -1 -p tcp -e 40 -c 2 -a 0 -i 8 -k AGT
+ -t 1.000000000 -s 20 -d -1 -p tcp -e 40 -c 2 -a 0 -i 9 -k AGT 
- -t 1.000000000 -s 20 -d -1 -p tcp -e 40 -c 2 -a 0 -i 9 -k AGT
h -t 1.000000000 -s 20 -d -1 -p tcp -e 40 -c 2 -a 0 -i 9 -k AGT
+ -t 1.000000000 -s 20 -d -1 -p tcp -e 40 -c 2 -a 0 -i 10 -k AGT 
- -t 1.000000000 -s 20 -d -1 -p tcp -e 40 -c 2 -a 0 -i 10 -k AGT
h -t 1.000000000 -s 20 -d -1 -p tcp -e 40 -c 2 -a 0 -i 10 -k AGT
+ -t 1.000000000 -s 20 -d -1 -p tcp -e 40 -c 2 -a 0 -i 11 -k AGT 
- -t 1.000000000 -s 20 -d -1 -p tcp -e 40 -c 2 -a 0 -i 11 -k AGT
h -t 1.000000000 -s 20 -d -1 -p tcp -e 40 -c 2 -a 0 -i 11 -k AGT
+ -t 1.000000000 -s 20 -d -1 -p tcp -e 40 -c 2 -a 0 -i 12 -k AGT 
- -t 1.000000000 -s 20 -d -1 -p tcp -e 40 -c 2 -a 0 -i 12 -k AGT
h -t 1.000000000 -s 20 -d -1 -p tcp -e 40 -c 2 -a 0 -i 12 -k AGT
+ -t 1.000000000 -s 20 -d -1 -p tcp -e 40 -c 2 -a 0 -i 13 -k AGT 
- -t 1.000000000 -s 20 -d -1 -p tcp -e 40 -c 2 -a 0 -i 13 -k AGT
h -t 1.000000000 -s 20 -d -1 -p tcp -e 40 -c 2 -a 0 -i 13 -k AGT
+ -t 1.000000000 -s 20 -d -1 -p tcp -e 40 -c 2 -a 0 -i 14 -k AGT 
- -t 1.000000000 -s 20 -d -1 -p tcp -e 40 -c 2 -a 0 -i 14 -k AGT
h -t 1.000000000 -s 20 -d -1 -p tcp -e 40 -c 2 -a 0 -i 14 -k AGT
+ -t 1.000000000 -s 20 -d -1 -p tcp -e 40 -c 2 -a 0 -i 15 -k AGT 
- -t 1.000000000 -s 20 -d -1 -p tcp -e 40 -c 2 -a 0 -i 15 -k AGT
h -t 1.000000000 -s 20 -d -1 -p tcp -e 40 -c 2 -a 0 -i 15 -k AGT
+ -t 1.000000000 -s 20 -d -1 -p tcp -e 40 -c 2 -a 0 -i 16 -k AGT 
- -t 1.000000000 -s 20 -d -1 -p tcp -e 40 -c 2 -a 0 -i 16 -k AGT
h -t 1.000000000 -s 20 -d -1 -p tcp -e 40 -c 2 -a 0 -i 16 -k AGT
+ -t 1.000000000 -s 20 -d -1 -p tcp -e 40 -c 2 -a 0 -i 17 -k AGT 
- -t 1.000000000 -s 20 -d -1 -p tcp -e 40 -c 2 -a 0 -i 17 -k AGT
h -t 1.000000000 -s 20 -d -1 -p tcp -e 40 -c 2 -a 0 -i 17 -k AGT
+ -t 1.000000000 -s 20 -d -1 -p tcp -e 40 -c 2 -a 0 -i 18 -k AGT 
- -t 1.000000000 -s 20 -d -1 -p tcp -e 40 -c 2 -a 0 -i 18 -k AGT
h -t 1.000000000 -s 20 -d -1 -p tcp -e 40 -c 2 -a 0 -i 18 -k AGT
+ -t 1.000000000 -s 20 -d -1 -p tcp -e 40 -c 2 -a 0 -i 19 -k AGT 
- -t 1.000000000 -s 20 -d -1 -p tcp -e 40 -c 2 -a 0 -i 19 -k AGT
h -t 1.000000000 -s 20 -d -1 -p tcp -e 40 -c 2 -a 0 -i 19 -k AGT
+ -t 1.000000000 -s 20 -d -1 -p tcp -e 40 -c 2 -a 0 -i 20 -k AGT 
- -t 1.000000000 -s 20 -d -1 -p tcp -e 40 -c 2 -a 0 -i 20 -k AGT
h -t 1.000000000 -s 20 -d -1 -p tcp -e 40 -c 2 -a 0 -i 20 -k AGT
+ -t 1.000000000 -s 20 -d -1 -p tcp -e 40 -c 2 -a 0 -i 21 -k AGT 
- -t 1.000000000 -s 20 -d -1 -p tcp -e 40 -c 2 -a 0 -i 21 -k AGT
h -t 1.000000000 -s 20 -d -1 -p tcp -e 40 -c 2 -a 0 -i 21 -k AGT
+ -t 1.000000000 -s 20 -d -1 -p tcp -e 40 -c 2 -a 0 -i 22 -k AGT 
- -t 1.000000000 -s 20 -d -1 -p tcp -e 40 -c 2 -a 0 -i 22 -k AGT
h -t 1.000000000 -s 20 -d -1 -p tcp -e 40 -c 2 -a 0 -i 22 -k AGT
+ -t 1.000000000 -s 20 -d -1 -p tcp -e 40 -c 2 -a 0 -i 23 -k AGT 
- -t 1.000000000 -s 20 -d -1 -p tcp -e 40 -c 2 -a 0 -i 23 -k AGT
h -t 1.000000000 -s 20 -d -1 -p tcp -e 40 -c 2 -a 0 -i 23 -k AGT
+ -t 1.000000000 -s 20 -d -1 -p tcp -e 40 -c 2 -a 0 -i 24 -k AGT 
- -t 1.000000000 -s 20 -d -1 -p tcp -e 40 -c 2 -a 0 -i 24 -k AGT
h -t 1.000000000 -s 20 -d -1 -p tcp -e 40 -c 2 -a 0 -i 24 -k AGT
+ -t 1.000000000 -s 20 -d -1 -p tcp -e 40 -c 2 -a 0 -i 25 -k AGT 
- -t 1.000000000 -s 20 -d -1 -p tcp -e 40 -c 2 -a 0 -i 25 -k AGT
h -t 1.000000000 -s 20 -d -1 -p tcp -e 40 -c 2 -a 0 -i 25 -k AGT
+ -t 1.000000000 -s 20 -d -1 -p tcp -e 40 -c 2 -a 0 -i 26 -k AGT 
- -t 1.000000000 -s 20 -d -1 -p tcp -e 40 -c 2 -a 0 -i 26 -k AGT
h -t 1.000000000 -s 20 -d -1 -p tcp -e 40 -c 2 -a 0 -i 26 -k AGT
+ -t 1.000000000 -s 20 -d -1 -p tcp -e 40 -c 2 -a 0 -i 27 -k AGT 
- -t 1.000000000 -s 20 -d -1 -p tcp -e 40 -c 2 -a 0 -i 27 -k AGT
h -t 1.000000000 -s 20 -d -1 -p tcp -e 40 -c 2 -a 0 -i 27 -k AGT
+ -t 1.000000000 -s 20 -d -1 -p tcp -e 40 -c 2 -a 0 -i 28 -k AGT 
- -t 1.000000000 -s 20 -d -1 -p tcp -e 40 -c 2 -a 0 -i 28 -k AGT
h -t 1.000000000 -s 20 -d -1 -p tcp -e 40 -c 2 -a 0 -i 28 -k AGT
+ -t 1.000000000 -s 20 -d -1 -p tcp -e 40 -c 2 -a 0 -i 29 -k AGT 
- -t 1.000000000 -s 20 -d -1 -p tcp -e 40 -c 2 -a 0 -i 29 -k AGT
h -t 1.000000000 -s 20 -d -1 -p tcp -e 40 -c 2 -a 0 -i 29 -k AGT
+ -t 1.000000000 -s 20 -d -1 -p tcp -e 40 -c 2 -a 0 -i 30 -k AGT 
- -t 1.000000000 -s 20 -d -1 -p tcp -e 40 -c 2 -a 0 -i 30 -k AGT
h -t 1.000000000 -s 20 -d -1 -p tcp -e 40 -c 2 -a 0 -i 30 -k AGT
+ -t 1.000000000 -s 20 -d -1 -p tcp -e 40 -c 2 -a 0 -i 31 -k AGT 
- -t 1.000000000 -s 20 -d -1 -p tcp -e 40 -c 2 -a 0 -i 31 -k AGT
h -t 1.000000000 -s 20 -d -1 -p tcp -e 40 -c 2 -a 0 -i 31 -k AGT
+ -t 1.000000000 -s 20 -d -1 -p tcp -e 40 -c 2 -a 0 -i 32 -k AGT 
- -t 1.000000000 -s 20 -d -1 -p tcp -e 40 -c 2 -a 0 -i 32 -k AGT
h -t 1.000000000 -s 20 -d -1 -p tcp -e 40 -c 2 -a 0 -i 32 -k AGT
+ -t 1.000000000 -s 20 -d -1 -p tcp -e 40 -c 2 -a 0 -i 33 -k AGT 
- -t 1.000000000 -s 20 -d -1 -p tcp -e 40 -c 2 -a 0 -i 33 -k AGT
h -t 1.000000000 -s 20 -d -1 -p tcp -e 40 -c 2 -a 0 -i 33 -k AGT
+ -t 1.000000000 -s 20 -d -1 -p tcp -e 40 -c 2 -a 0 -i 34 -k AGT 
- -t 1.000000000 -s 20 -d -1 -p tcp -e 40 -c 2 -a 0 -i 34 -k AGT
h -t 1.000000000 -s 20 -d -1 -p tcp -e 40 -c 2 -a 0 -i 34 -k AGT
+ -t 1.000000000 -s 20 -d -1 -p tcp -e 40 -c 2 -a 0 -i 35 -k AGT 
- -t 1.000000000 -s 20 -d -1 -p tcp -e 40 -c 2 -a 0 -i 35 -k AGT
h -t 1.000000000 -s 20 -d -1 -p tcp -e 40 -c 2 -a 0 -i 35 -k AGT
+ -t 1.000000000 -s 20 -d -1 -p tcp -e 40 -c 2 -a 0 -i 36 -k AGT 
- -t 1.000000000 -s 20 -d -1 -p tcp -e 40 -c 2 -a 0 -i 36 -k AGT
h -t 1.000000000 -s 20 -d -1 -p tcp -e 40 -c 2 -a 0 -i 36 -k AGT
+ -t 1.000000000 -s 20 -d -1 -p tcp -e 40 -c 2 -a 0 -i 37 -k AGT 
- -t 1.000000000 -s 20 -d -1 -p tcp -e 40 -c 2 -a 0 -i 37 -k AGT
h -t 1.000000000 -s 20 -d -1 -p tcp -e 40 -c 2 -a 0 -i 37 -k AGT
+ -t 1.000000000 -s 20 -d -1 -p tcp -e 40 -c 2 -a 0 -i 38 -k AGT 
- -t 1.000000000 -s 20 -d -1 -p tcp -e 40 -c 2 -a 0 -i 38 -k AGT
h -t 1.000000000 -s 20 -d -1 -p tcp -e 40 -c 2 -a 0 -i 38 -k AGT
+ -t 1.000000000 -s 20 -d -1 -p tcp -e 40 -c 2 -a 0 -i 39 -k AGT 
- -t 1.000000000 -s 20 -d -1 -p tcp -e 40 -c 2 -a 0 -i 39 -k AGT
h -t 1.000000000 -s 20 -d -1 -p tcp -e 40 -c 2 -a 0 -i 39 -k AGT
+ -t 1.000000000 -s 20 -d -1 -p AODV -e 48 -c 2 -a 0 -i 0 -k RTR 
- -t 1.000000000 -s 20 -d -1 -p AODV -e 48 -c 2 -a 0 -i 0 -k RTR
h -t 1.000000000 -s 20 -d -1 -p AODV -e 48 -c 2 -a 0 -i 0 -k RTR
+ -t 1.000000000 -s 20 -d -1 -p AODV -e 48 -c 2 -a 0 -i 0 -k RTR 
- -t 1.000000000 -s 20 -d -1 -p AODV -e 48 -c 2 -a 0 -i 0 -k RTR
h -t 1.000000000 -s 20 -d -1 -p AODV -e 48 -c 2 -a 0 -i 0 -k RTR
+ -t 1.000000000 -s 20 -d -1 -p AODV -e 48 -c 2 -a 0 -i 0 -k RTR 
- -t 1.000000000 -s 20 -d -1 -p AODV -e 48 -c 2 -a 0 -i 0 -k RTR
h -t 1.000000000 -s 20 -d -1 -p AODV -e 48 -c 2 -a 0 -i 0 -k RTR
+ -t 1.000000000 -s 20 -d -1 -p AODV -e 48 -c 2 -a 0 -i 0 -k RTR 
- -t 1.000000000 -s 20 -d -1 -p AODV -e 48 -c 2 -a 0 -i 0 -k RTR
h -t 1.000000000 -s 20 -d -1 -p AODV -e 48 -c 2 -a 0 -i 0 -k RTR
+ -t 1.000000000 -s 20 -d -1 -p AODV -e 48 -c 2 -a 0 -i 0 -k RTR 
- -t 1.000000000 -s 20 -d -1 -p AODV -e 48 -c 2 -a 0 -i 0 -k RTR
h -t 1.000000000 -s 20 -d -1 -p AODV -e 48 -c 2 -a 0 -i 0 -k RTR
+ -t 1.000000000 -s 20 -d -1 -p AODV -e 48 -c 2 -a 0 -i 0 -k RTR 
- -t 1.000000000 -s 20 -d -1 -p AODV -e 48 -c 2 -a 0 -i 0 -k RTR
h -t 1.000000000 -s 20 -d -1 -p AODV -e 48 -c 2 -a 0 -i 0 -k RTR
+ -t 1.000000000 -s 20 -d -1 -p AODV -e 48 -c 2 -a 0 -i 0 -k RTR 
- -t 1.000000000 -s 20 -d -1 -p AODV -e 48 -c 2 -a 0 -i 0 -k RTR
h -t 1.000000000 -s 20 -d -1 -p AODV -e 48 -c 2 -a 0 -i 0 -k RTR
+ -t 1.000000000 -s 20 -d -1 -p AODV -e 48 -c 2 -a 0 -i 0 -k RTR 
- -t 1.000000000 -s 20 -d -1 -p AODV -e 48 -c 2 -a 0 -i 0 -k RTR
h -t 1.000000000 -s 20 -d -1 -p AODV -e 48 -c 2 -a 0 -i 0 -k RTR
+ -t 1.000000000 -s 20 -d -1 -p AODV -e 48 -c 2 -a 0 -i 0 -k RTR 
- -t 1.000000000 -s 20 -d -1 -p AODV -e 48 -c 2 -a 0 -i 0 -k RTR
h -t 1.000000000 -s 20 -d -1 -p AODV -e 48 -c 2 -a 0 -i 0 -k RTR
+ -t 1.000000000 -s 20 -d -1 -p AODV -e 48 -c 2 -a 0 -i 0 -k RTR 
- -t 1.000000000 -s 20 -d -1 -p AODV -e 48 -c 2 -a 0 -i 0 -k RTR
h -t 1.000000000 -s 20 -d -1 -p AODV -e 48 -c 2 -a 0 -i 0 -k RTR
+ -t 1.000000000 -s 20 -d -1 -p AODV -e 48 -c 2 -a 0 -i 0 -k RTR 
- -t 1.000000000 -s 20 -d -1 -p AODV -e 48 -c 2 -a 0 -i 0 -k RTR
h -t 1.000000000 -s 20 -d -1 -p AODV -e 48 -c 2 -a 0 -i 0 -k RTR
+ -t 1.000000000 -s 20 -d -1 -p AODV -e 48 -c 2 -a 0 -i 0 -k RTR 
- -t 1.000000000 -s 20 -d -1 -p AODV -e 48 -c 2 -a 0 -i 0 -k RTR
h -t 1.000000000 -s 20 -d -1 -p AODV -e 48 -c 2 -a 0 -i 0 -k RTR
+ -t 1.000000000 -s 20 -d -1 -p AODV -e 48 -c 2 -a 0 -i 0 -k RTR 
- -t 1.000000000 -s 20 -d -1 -p AODV -e 48 -c 2 -a 0 -i 0 -k RTR
h -t 1.000000000 -s 20 -d -1 -p AODV -e 48 -c 2 -a 0 -i 0 -k RTR
+ -t 1.000000000 -s 20 -d -1 -p AODV -e 48 -c 2 -a 0 -i 0 -k RTR 
- -t 1.000000000 -s 20 -d -1 -p AODV -e 48 -c 2 -a 0 -i 0 -k RTR
h -t 1.000000000 -s 20 -d -1 -p AODV -e 48 -c 2 -a 0 -i 0 -k RTR
+ -t 1.000000000 -s 20 -d -1 -p AODV -e 48 -c 2 -a 0 -i 0 -k RTR 
- -t 1.000000000 -s 20 -d -1 -p AODV -e 48 -c 2 -a 0 -i 0 -k RTR
h -t 1.000000000 -s 20 -d -1 -p AODV -e 48 -c 2 -a 0 -i 0 -k RTR
+ -t 1.000000000 -s 20 -d -1 -p AODV -e 48 -c 2 -a 0 -i 0 -k RTR 
- -t 1.000000000 -s 20 -d -1 -p AODV -e 48 -c 2 -a 0 -i 0 -k RTR
h -t 1.000000000 -s 20 -d -1 -p AODV -e 48 -c 2 -a 0 -i 0 -k RTR
+ -t 1.000000000 -s 20 -d -1 -p AODV -e 48 -c 2 -a 0 -i 0 -k RTR 
- -t 1.000000000 -s 20 -d -1 -p AODV -e 48 -c 2 -a 0 -i 0 -k RTR
h -t 1.000000000 -s 20 -d -1 -p AODV -e 48 -c 2 -a 0 -i 0 -k RTR
+ -t 1.000000000 -s 20 -d -1 -p AODV -e 48 -c 2 -a 0 -i 0 -k RTR 
- -t 1.000000000 -s 20 -d -1 -p AODV -e 48 -c 2 -a 0 -i 0 -k RTR
h -t 1.000000000 -s 20 -d -1 -p AODV -e 48 -c 2 -a 0 -i 0 -k RTR
+ -t 1.000000000 -s 20 -d -1 -p AODV -e 48 -c 2 -a 0 -i 0 -k RTR 
- -t 1.000000000 -s 20 -d -1 -p AODV -e 48 -c 2 -a 0 -i 0 -k RTR
h -t 1.000000000 -s 20 -d -1 -p AODV -e 48 -c 2 -a 0 -i 0 -k RTR
+ -t 1.000000000 -s 20 -d -1 -p AODV -e 48 -c 2 -a 0 -i 0 -k RTR 
- -t 1.000000000 -s 20 -d -1 -p AODV -e 48 -c 2 -a 0 -i 0 -k RTR
h -t 1.000000000 -s 20 -d -1 -p AODV -e 48 -c 2 -a 0 -i 0 -k RTR
+ -t 1.000000000 -s 20 -d -1 -p AODV -e 48 -c 2 -a 0 -i 0 -k RTR 
- -t 1.000000000 -s 20 -d -1 -p AODV -e 48 -c 2 -a 0 -i 0 -k RTR
h -t 1.000000000 -s 20 -d -1 -p AODV -e 48 -c 2 -a 0 -i 0 -k RTR
+ -t 1.000000000 -s 20 -d -1 -p AODV -e 48 -c 2 -a 0 -i 0 -k RTR 
- -t 1.000000000 -s 20 -d -1 -p AODV -e 48 -c 2 -a 0 -i 0 -k RTR
h -t 1.000000000 -s 20 -d -1 -p AODV -e 48 -c 2 -a 0 -i 0 -k RTR
+ -t 1.000000000 -s 20 -d -1 -p AODV -e 48 -c 2 -a 0 -i 0 -k RTR 
- -t 1.000000000 -s 20 -d -1 -p AODV -e 48 -c 2 -a 0 -i 0 -k RTR
h -t 1.000000000 -s 20 -d -1 -p AODV -e 48 -c 2 -a 0 -i 0 -k RTR
+ -t 1.000000000 -s 20 -d -1 -p AODV -e 48 -c 2 -a 0 -i 0 -k RTR 
- -t 1.000000000 -s 20 -d -1 -p AODV -e 48 -c 2 -a 0 -i 0 -k RTR
h -t 1.000000000 -s 20 -d -1 -p AODV -e 48 -c 2 -a 0 -i 0 -k RTR
r -t 1.005202120 -s 9 -d -1 -p AODV -e 48 -c 2 -a 0 -i 0 -k RTR
r -t 1.005202147 -s 24 -d -1 -p AODV -e 48 -c 2 -a 0 -i 0 -k RTR
r -t 1.005202202 -s 3 -d -1 -p AODV -e 48 -c 2 -a 0 -i 0 -k RTR
r -t 1.005202345 -s 4 -d -1 -p AODV -e 48 -c 2 -a 0 -i 0 -k RTR
r -t 1.005202362 -s 37 -d -1 -p AODV -e 48 -c 2 -a 0 -i 0 -k RTR
r -t 1.005202381 -s 2 -d -1 -p AODV -e 48 -c 2 -a 0 -i 0 -k RTR
r -t 1.005202419 -s 33 -d -1 -p AODV -e 48 -c 2 -a 0 -i 0 -k RTR
r -t 1.005202444 -s 7 -d -1 -p AODV -e 48 -c 2 -a 0 -i 0 -k RTR
r -t 1.005202515 -s 23 -d -1 -p AODV -e 48 -c 2 -a 0 -i 0 -k RTR
r -t 1.005202574 -s 15 -d -1 -p AODV -e 48 -c 2 -a 0 -i 0 -k RTR
r -t 1.005202630 -s 19 -d -1 -p AODV -e 48 -c 2 -a 0 -i 0 -k RTR
r -t 1.005202638 -s 25 -d -1 -p AODV -e 48 -c 2 -a 0 -i 0 -k RTR
r -t 1.005202672 -s 5 -d -1 -p AODV -e 48 -c 2 -a 0 -i 0 -k RTR
r -t 1.005202732 -s 34 -d -1 -p AODV -e 48 -c 2 -a 0 -i 0 -k RTR
r -t 1.005202747 -s 30 -d -1 -p AODV -e 48 -c 2 -a 0 -i 0 -k RTR
r -t 1.005202830 -s 27 -d -1 -p AODV -e 48 -c 2 -a 0 -i 0 -k RTR
+ -t 1.005597610 -s 15 -d -1 -p AODV -e 48 -c 2 -a 0 -i 0 -k RTR 
- -t 1.005597610 -s 15 -d -1 -p AODV -e 48 -c 2 -a 0 -i 0 -k RTR
h -t 1.005597610 -s 15 -d -1 -p AODV -e 48 -c 2 -a 0 -i 0 -k RTR
+ -t 1.005789726 -s 30 -d -1 -p AODV -e 48 -c 2 -a 0 -i 0 -k RTR 
- -t 1.005789726 -s 30 -d -1 -p AODV -e 48 -c 2 -a 0 -i 0 -k RTR
h -t 1.005789726 -s 30 -d -1 -p AODV -e 48 -c 2 -a 0 -i 0 -k RTR
+ -t 1.005847309 -s 33 -d -1 -p AODV -e 48 -c 2 -a 0 -i 0 -k RTR 
- -t 1.005847309 -s 33 -d -1 -p AODV -e 48 -c 2 -a 0 -i 0 -k RTR
h -t 1.005847309 -s 33 -d -1 -p AODV -e 48 -c 2 -a 0 -i 0 -k RTR
+ -t 1.006787499 -s 37 -d -1 -p AODV -e 48 -c 2 -a 0 -i 0 -k RTR 
- -t 1.006787499 -s 37 -d -1 -p AODV -e 48 -c 2 -a 0 -i 0 -k RTR
h -t 1.006787499 -s 37 -d -1 -p AODV -e 48 -c 2 -a 0 -i 0 -k RTR
+ -t 1.006969292 -s 7 -d -1 -p AODV -e 48 -c 2 -a 0 -i 0 -k RTR 
- -t 1.006969292 -s 7 -d -1 -p AODV -e 48 -c 2 -a 0 -i 0 -k RTR
h -t 1.006969292 -s 7 -d -1 -p AODV -e 48 -c 2 -a 0 -i 0 -k RTR
+ -t 1.007470979 -s 5 -d -1 -p AODV -e 48 -c 2 -a 0 -i 0 -k RTR 
- -t 1.007470979 -s 5 -d -1 -p AODV -e 48 -c 2 -a 0 -i 0 -k RTR
h -t 1.007470979 -s 5 -d -1 -p AODV -e 48 -c 2 -a 0 -i 0 -k RTR
+ -t 1.007557788 -s 2 -d -1 -p AODV -e 48 -c 2 -a 0 -i 0 -k RTR 
- -t 1.007557788 -s 2 -d -1 -p AODV -e 48 -c 2 -a 0 -i 0 -k RTR
h -t 1.007557788 -s 2 -d -1 -p AODV -e 48 -c 2 -a 0 -i 0 -k RTR
r -t 1.008434120 -s 9 -d -1 -p AODV -e 48 -c 2 -a 0 -i 0 -k RTR
r -t 1.008434147 -s 24 -d -1 -p AODV -e 48 -c 2 -a 0 -i 0 -k RTR
r -t 1.008434202 -s 3 -d -1 -p AODV -e 48 -c 2 -a 0 -i 0 -k RTR
r -t 1.008434345 -s 4 -d -1 -p AODV -e 48 -c 2 -a 0 -i 0 -k RTR
r -t 1.008434362 -s 37 -d -1 -p AODV -e 48 -c 2 -a 0 -i 0 -k RTR
r -t 1.008434381 -s 2 -d -1 -p AODV -e 48 -c 2 -a 0 -i 0 -k RTR
r -t 1.008434419 -s 33 -d -1 -p AODV -e 48 -c 2 -a 0 -i 0 -k RTR
r -t 1.008434444 -s 7 -d -1 -p AODV -e 48 -c 2 -a 0 -i 0 -k RTR
r -t 1.008434515 -s 23 -d -1 -p AODV -e 48 -c 2 -a 0 -i 0 -k RTR
r -t 1.008434574 -s 15 -d -1 -p AODV -e 48 -c 2 -a 0 -i 0 -k RTR
r -t 1.008434630 -s 19 -d -1 -p AODV -e 48 -c 2 -a 0 -i 0 -k RTR
r -t 1.008434638 -s 25 -d -1 -p AODV -e 48 -c 2 -a 0 -i 0 -k RTR
r -t 1.008434672 -s 5 -d -1 -p AODV -e 48 -c 2 -a 0 -i 0 -k RTR
r -t 1.008434732 -s 34 -d -1 -p AODV -e 48 -c 2 -a 0 -i 0 -k RTR
r -t 1.008434747 -s 30 -d -1 -p AODV -e 48 -c 2 -a 0 -i 0 -k RTR
r -t 1.008434830 -s 27 -d -1 -p AODV -e 48 -c 2 -a 0 -i 0 -k RTR
+ -t 1.008602444 -s 27 -d -1 -p AODV -e 48 -c 2 -a 0 -i 0 -k RTR 
- -t 1.008602444 -s 27 -d -1 -p AODV -e 48 -c 2 -a 0 -i 0 -k RTR
h -t 1.008602444 -s 27 -d -1 -p AODV -e 48 -c 2 -a 0 -i 0 -k RTR
+ -t 1.009099213 -s 37 -d -1 -p AODV -e 48 -c 2 -a 0 -i 0 -k RTR 
- -t 1.009099213 -s 37 -d -1 -p AODV -e 48 -c 2 -a 0 -i 0 -k RTR
h -t 1.009099213 -s 37 -d -1 -p AODV -e 48 -c 2 -a 0 -i 0 -k RTR
+ -t 1.009952059 -s 9 -d -1 -p AODV -e 48 -c 2 -a 0 -i 0 -k RTR 
- -t 1.009952059 -s 9 -d -1 -p AODV -e 48 -c 2 -a 0 -i 0 -k RTR
h -t 1.009952059 -s 9 -d -1 -p AODV -e 48 -c 2 -a 0 -i 0 -k RTR
+ -t 1.010049861 -s 9 -d -1 -p AODV -e 48 -c 2 -a 0 -i 0 -k RTR 
- -t 1.010049861 -s 9 -d -1 -p AODV -e 48 -c 2 -a 0 -i 0 -k RTR
h -t 1.010049861 -s 9 -d -1 -p AODV -e 48 -c 2 -a 0 -i 0 -k RTR
+ -t 1.010053390 -s 27 -d -1 -p AODV -e 48 -c 2 -a 0 -i 0 -k RTR 
- -t 1.010053390 -s 27 -d -1 -p AODV -e 48 -c 2 -a 0 -i 0 -k RTR
h -t 1.010053390 -s 27 -d -1 -p AODV -e 48 -c 2 -a 0 -i 0 -k RTR
+ -t 1.010493497 -s 5 -d -1 -p AODV -e 48 -c 2 -a 0 -i 0 -k RTR 
- -t 1.010493497 -s 5 -d -1 -p AODV -e 48 -c 2 -a 0 -i 0 -k RTR
h -t 1.010493497 -s 5 -d -1 -p AODV -e 48 -c 2 -a 0 -i 0 -k RTR
+ -t 1.010987643 -s 19 -d -1 -p AODV -e 48 -c 2 -a 0 -i 0 -k RTR 
- -t 1.010987643 -s 19 -d -1 -p AODV -e 48 -c 2 -a 0 -i 0 -k RTR
h -t 1.010987643 -s 19 -d -1 -p AODV -e 48 -c 2 -a 0 -i 0 -k RTR
r -t 1.010991931 -s 39 -d -1 -p AODV -e 48 -c 2 -a 0 -i 0 -k RTR
r -t 1.011049609 -s 9 -d -1 -p AODV -e 48 -c 2 -a 0 -i 0 -k RTR
r -t 1.011049728 -s 20 -d -1 -p AODV -e 48 -c 2 -a 0 -i 0 -k RTR
+ -t 1.011063183 -s 15 -d -1 -p AODV -e 48 -c 2 -a 0 -i 0 -k RTR 
- -t 1.011063183 -s 15 -d -1 -p AODV -e 48 -c 2 -a 0 -i 0 -k RTR
h -t 1.011063183 -s 15 -d -1 -p AODV -e 48 -c 2 -a 0 -i 0 -k RTR
+ -t 1.011431101 -s 3 -d -1 -p AODV -e 48 -c 2 -a 0 -i 0 -k RTR 
- -t 1.011431101 -s 3 -d -1 -p AODV -e 48 -c 2 -a 0 -i 0 -k RTR
h -t 1.011431101 -s 3 -d -1 -p AODV -e 48 -c 2 -a 0 -i 0 -k RTR
+ -t 1.011765904 -s 39 -d -1 -p AODV -e 48 -c 2 -a 0 -i 0 -k RTR 
- -t 1.011765904 -s 39 -d -1 -p AODV -e 48 -c 2 -a 0 -i 0 -k RTR
h -t 1.011765904 -s 39 -d -1 -p AODV -e 48 -c 2 -a 0 -i 0 -k RTR
+ -t 1.012264720 -s 25 -d -1 -p AODV -e 48 -c 2 -a 0 -i 0 -k RTR 
- -t 1.012264720 -s 25 -d -1 -p AODV -e 48 -c 2 -a 0 -i 0 -k RTR
h -t 1.012264720 -s 25 -d -1 -p AODV -e 48 -c 2 -a 0 -i 0 -k RTR
+ -t 1.013229792 -s 19 -d -1 -p AODV -e 48 -c 2 -a 0 -i 0 -k RTR 
- -t 1.013229792 -s 19 -d -1 -p AODV -e 48 -c 2 -a 0 -i 0 -k RTR
h -t 1.013229792 -s 19 -d -1 -p AODV -e 48 -c 2 -a 0 -i 0 -k RTR
+ -t 1.013505145 -s 34 -d -1 -p AODV -e 48 -c 2 -a 0 -i 0 -k RTR 
- -t 1.013505145 -s 34 -d -1 -p AODV -e 48 -c 2 -a 0 -i 0 -k RTR
h -t 1.013505145 -s 34 -d -1 -p AODV -e 48 -c 2 -a 0 -i 0 -k RTR
+ -t 1.013614717 -s 33 -d -1 -p AODV -e 48 -c 2 -a 0 -i 0 -k RTR 
- -t 1.013614717 -s 33 -d -1 -p AODV -e 48 -c 2 -a 0 -i 0 -k RTR
h -t 1.013614717 -s 33 -d -1 -p AODV -e 48 -c 2 -a 0 -i 0 -k RTR
+ -t 1.013710173 -s 4 -d -1 -p AODV -e 48 -c 2 -a 0 -i 0 -k RTR 
- -t 1.013710173 -s 4 -d -1 -p AODV -e 48 -c 2 -a 0 -i 0 -k RTR
h -t 1.013710173 -s 4 -d -1 -p AODV -e 48 -c 2 -a 0 -i 0 -k RTR
r -t 1.013714120 -s 9 -d -1 -p AODV -e 48 -c 2 -a 0 -i 0 -k RTR
r -t 1.013717523 -s 2 -d -1 -p AODV -e 48 -c 2 -a 0 -i 0 -k RTR
+ -t 1.013787871 -s 4 -d -1 -p AODV -e 48 -c 2 -a 0 -i 0 -k RTR 
- -t 1.013787871 -s 4 -d -1 -p AODV -e 48 -c 2 -a 0 -i 0 -k RTR
h -t 1.013787871 -s 4 -d -1 -p AODV -e 48 -c 2 -a 0 -i 0 -k RTR
r -t 1.013804598 -s 13 -d -1 -p AODV -e 48 -c 2 -a 0 -i 0 -k RTR
r -t 1.013804702 -s 15 -d -1 -p AODV -e 48 -c 2 -a 0 -i 0 -k RTR
r -t 1.013804717 -s 26 -d -1 -p AODV -e 48 -c 2 -a 0 -i 0 -k RTR
r -t 1.013804753 -s 5 -d -1 -p AODV -e 48 -c 2 -a 0 -i 0 -k RTR
r -t 1.013804807 -s 12 -d -1 -p AODV -e 48 -c 2 -a 0 -i 0 -k RTR
r -t 1.013804811 -s 1 -d -1 -p AODV -e 48 -c 2 -a 0 -i 0 -k RTR
r -t 1.013804878 -s 28 -d -1 -p AODV -e 48 -c 2 -a 0 -i 0 -k RTR
r -t 1.013804920 -s 14 -d -1 -p AODV -e 48 -c 2 -a 0 -i 0 -k RTR
r -t 1.013804963 -s 17 -d -1 -p AODV -e 48 -c 2 -a 0 -i 0 -k RTR
r -t 1.013804963 -s 11 -d -1 -p AODV -e 48 -c 2 -a 0 -i 0 -k RTR
r -t 1.013805054 -s 29 -d -1 -p AODV -e 48 -c 2 -a 0 -i 0 -k RTR
r -t 1.013805143 -s 31 -d -1 -p AODV -e 48 -c 2 -a 0 -i 0 -k RTR
+ -t 1.013836519 -s 3 -d -1 -p AODV -e 48 -c 2 -a 0 -i 0 -k RTR 
- -t 1.013836519 -s 3 -d -1 -p AODV -e 48 -c 2 -a 0 -i 0 -k RTR
h -t 1.013836519 -s 3 -d -1 -p AODV -e 48 -c 2 -a 0 -i 0 -k RTR
+ -t 1.013839879 -s 13 -d -1 -p AODV -e 48 -c 2 -a 0 -i 0 -k RTR 
- -t 1.013839879 -s 13 -d -1 -p AODV -e 48 -c 2 -a 0 -i 0 -k RTR
h -t 1.013839879 -s 13 -d -1 -p AODV -e 48 -c 2 -a 0 -i 0 -k RTR
+ -t 1.013915963 -s 23 -d -1 -p AODV -e 48 -c 2 -a 0 -i 0 -k RTR 
- -t 1.013915963 -s 23 -d -1 -p AODV -e 48 -c 2 -a 0 -i 0 -k RTR
h -t 1.013915963 -s 23 -d -1 -p AODV -e 48 -c 2 -a 0 -i 0 -k RTR
+ -t 1.014004397 -s 29 -d -1 -p AODV -e 48 -c 2 -a 0 -i 0 -k RTR 
- -t 1.014004397 -s 29 -d -1 -p AODV -e 48 -c 2 -a 0 -i 0 -k RTR
h -t 1.014004397 -s 29 -d -1 -p AODV -e 48 -c 2 -a 0 -i 0 -k RTR
+ -t 1.014170155 -s 24 -d -1 -p AODV -e 48 -c 2 -a 0 -i 0 -k RTR 
- -t 1.014170155 -s 24 -d -1 -p AODV -e 48 -c 2 -a 0 -i 0 -k RTR
h -t 1.014170155 -s 24 -d -1 -p AODV -e 48 -c 2 -a 0 -i 0 -k RTR
+ -t 1.014565529 -s 12 -d -1 -p AODV -e 48 -c 2 -a 0 -i 0 -k RTR 
- -t 1.014565529 -s 12 -d -1 -p AODV -e 48 -c 2 -a 0 -i 0 -k RTR
h -t 1.014565529 -s 12 -d -1 -p AODV -e 48 -c 2 -a 0 -i 0 -k RTR
+ -t 1.015007312 -s 30 -d -1 -p AODV -e 48 -c 2 -a 0 -i 0 -k RTR 
- -t 1.015007312 -s 30 -d -1 -p AODV -e 48 -c 2 -a 0 -i 0 -k RTR
h -t 1.015007312 -s 30 -d -1 -p AODV -e 48 -c 2 -a 0 -i 0 -k RTR
+ -t 1.015188508 -s 34 -d -1 -p AODV -e 48 -c 2 -a 0 -i 0 -k RTR 
- -t 1.015188508 -s 34 -d -1 -p AODV -e 48 -c 2 -a 0 -i 0 -k RTR
h -t 1.015188508 -s 34 -d -1 -p AODV -e 48 -c 2 -a 0 -i 0 -k RTR
+ -t 1.015396355 -s 17 -d -1 -p AODV -e 48 -c 2 -a 0 -i 0 -k RTR 
- -t 1.015396355 -s 17 -d -1 -p AODV -e 48 -c 2 -a 0 -i 0 -k RTR
h -t 1.015396355 -s 17 -d -1 -p AODV -e 48 -c 2 -a 0 -i 0 -k RTR
+ -t 1.015732389 -s 23 -d -1 -p AODV -e 48 -c 2 -a 0 -i 0 -k RTR 
- -t 1.015732389 -s 23 -d -1 -p AODV -e 48 -c 2 -a 0 -i 0 -k RTR
h -t 1.015732389 -s 23 -d -1 -p AODV -e 48 -c 2 -a 0 -i 0 -k RTR
+ -t 1.015918710 -s 1 -d -1 -p AODV -e 48 -c 2 -a 0 -i 0 -k RTR 
- -t 1.015918710 -s 1 -d -1 -p AODV -e 48 -c 2 -a 0 -i 0 -k RTR
h -t 1.015918710 -s 1 -d -1 -p AODV -e 48 -c 2 -a 0 -i 0 -k RTR
+ -t 1.015931570 -s 25 -d -1 -p AODV -e 48 -c 2 -a 0 -i 0 -k RTR 
- -t 1.015931570 -s 25 -d -1 -p AODV -e 48 -c 2 -a 0 -i 0 -k RTR
h -t 1.015931570 -s 25 -d -1 -p AODV -e 48 -c 2 -a 0 -i 0 -k RTR
r -t 1.016309523 -s 2 -d -1 -p AODV -e 48 -c 2 -a 0 -i 0 -k RTR
r -t 1.016441352 -s 9 -d -1 -p AODV -e 48 -c 2 -a 0 -i 0 -k RTR
+ -t 1.016502518 -s 11 -d -1 -p AODV -e 48 -c 2 -a 0 -i 0 -k RTR 
- -t 1.016502518 -s 11 -d -1 -p AODV -e 48 -c 2 -a 0 -i 0 -k RTR
h -t 1.016502518 -s 11 -d -1 -p AODV -e 48 -c 2 -a 0 -i 0 -k RTR
+ -t 1.017244240 -s 7 -d -1 -p AODV -e 48 -c 2 -a 0 -i 0 -k RTR 
- -t 1.017244240 -s 7 -d -1 -p AODV -e 48 -c 2 -a 0 -i 0 -k RTR
h -t 1.017244240 -s 7 -d -1 -p AODV -e 48 -c 2 -a 0 -i 0 -k RTR
+ -t 1.017884387 -s 24 -d -1 -p AODV -e 48 -c 2 -a 0 -i 0 -k RTR 
- -t 1.017884387 -s 24 -d -1 -p AODV -e 48 -c 2 -a 0 -i 0 -k RTR
h -t 1.017884387 -s 24 -d -1 -p AODV -e 48 -c 2 -a 0 -i 0 -k RTR
+ -t 1.018152687 -s 2 -d -1 -p AODV -e 48 -c 2 -a 0 -i 0 -k RTR 
- -t 1.018152687 -s 2 -d -1 -p AODV -e 48 -c 2 -a 0 -i 0 -k RTR
h -t 1.018152687 -s 2 -d -1 -p AODV -e 48 -c 2 -a 0 -i 0 -k RTR
+ -t 1.018577387 -s 14 -d -1 -p AODV -e 48 -c 2 -a 0 -i 0 -k RTR 
- -t 1.018577387 -s 14 -d -1 -p AODV -e 48 -c 2 -a 0 -i 0 -k RTR
h -t 1.018577387 -s 14 -d -1 -p AODV -e 48 -c 2 -a 0 -i 0 -k RTR
r -t 1.018720473 -s 24 -d -1 -p AODV -e 48 -c 2 -a 0 -i 0 -k RTR
r -t 1.018720499 -s 2 -d -1 -p AODV -e 48 -c 2 -a 0 -i 0 -k RTR
r -t 1.018720501 -s 37 -d -1 -p AODV -e 48 -c 2 -a 0 -i 0 -k RTR
r -t 1.018720517 -s 20 -d -1 -p AODV -e 48 -c 2 -a 0 -i 0 -k RTR
r -t 1.018875033 -s 5 -d -1 -p AODV -e 48 -c 2 -a 0 -i 0 -k RTR
r -t 1.018875036 -s 38 -d -1 -p AODV -e 48 -c 2 -a 0 -i 0 -k RTR
r -t 1.018875240 -s 21 -d -1 -p AODV -e 48 -c 2 -a 0 -i 0 -k RTR
r -t 1.018875276 -s 11 -d -1 -p AODV -e 48 -c 2 -a 0 -i 0 -k RTR
+ -t 1.020846784 -s 31 -d -1 -p AODV -e 48 -c 2 -a 0 -i 0 -k RTR 
- -t 1.020846784 -s 31 -d -1 -p AODV -e 48 -c 2 -a 0 -i 0 -k RTR
h -t 1.020846784 -s 31 -d -1 -p AODV -e 48 -c 2 -a 0 -i 0 -k RTR
+ -t 1.021363027 -s 21 -d -1 -p AODV -e 48 -c 2 -a 0 -i 0 -k RTR 
- -t 1.021363027 -s 21 -d -1 -p AODV -e 48 -c 2 -a 0 -i 0 -k RTR
h -t 1.021363027 -s 21 -d -1 -p AODV -e 48 -c 2 -a 0 -i 0 -k RTR
r -t 1.021420302 -s 20 -d -1 -p AODV -e 48 -c 2 -a 0 -i 0 -k RTR
r -t 1.021420358 -s 3 -d -1 -p AODV -e 48 -c 2 -a 0 -i 0 -k RTR
r -t 1.021420372 -s 37 -d -1 -p AODV -e 48 -c 2 -a 0 -i 0 -k RTR
r -t 1.021420391 -s 2 -d -1 -p AODV -e 48 -c 2 -a 0 -i 0 -k RTR
r -t 1.021420420 -s 9 -d -1 -p AODV -e 48 -c 2 -a 0 -i 0 -k RTR
r -t 1.021420715 -s 33 -d -1 -p AODV -e 48 -c 2 -a 0 -i 0 -k RTR
r -t 1.021523753 -s 18 -d -1 -p AODV -e 48 -c 2 -a 0 -i 0 -k RTR
r -t 1.021523819 -s 32 -d -1 -p AODV -e 48 -c 2 -a 0 -i 0 -k RTR
r -t 1.021523838 -s 36 -d -1 -p AODV -e 48 -c 2 -a 0 -i 0 -k RTR
+ -t 1.021741024 -s 26 -d -1 -p AODV -e 48 -c 2 -a 0 -i 0 -k RTR 
- -t 1.021741024 -s 26 -d -1 -p AODV -e 48 -c 2 -a 0 -i 0 -k RTR
h -t 1.021741024 -s 26 -d -1 -p AODV -e 48 -c 2 -a 0 -i 0 -k RTR
+ -t 1.021773053 -s 9 -d -1 -p AODV -e 48 -c 2 -a 0 -i 0 -k RTR 
- -t 1.021773053 -s 9 -d -1 -p AODV -e 48 -c 2 -a 0 -i 0 -k RTR
h -t 1.021773053 -s 9 -d -1 -p AODV -e 48 -c 2 -a 0 -i 0 -k RTR
+ -t 1.022187835 -s 28 -d -1 -p AODV -e 48 -c 2 -a 0 -i 0 -k RTR 
- -t 1.022187835 -s 28 -d -1 -p AODV -e 48 -c 2 -a 0 -i 0 -k RTR
h -t 1.022187835 -s 28 -d -1 -p AODV -e 48 -c 2 -a 0 -i 0 -k RTR
r -t 1.023564756 -s 24 -d -1 -p AODV -e 48 -c 2 -a 0 -i 0 -k RTR
r -t 1.023564768 -s 7 -d -1 -p AODV -e 48 -c 2 -a 0 -i 0 -k RTR
r -t 1.023564782 -s 2 -d -1 -p AODV -e 48 -c 2 -a 0 -i 0 -k RTR
r -t 1.023564784 -s 37 -d -1 -p AODV -e 48 -c 2 -a 0 -i 0 -k RTR
r -t 1.023564800 -s 20 -d -1 -p AODV -e 48 -c 2 -a 0 -i 0 -k RTR
r -t 1.023564889 -s 9 -d -1 -p AODV -e 48 -c 2 -a 0 -i 0 -k RTR
r -t 1.023564916 -s 25 -d -1 -p AODV -e 48 -c 2 -a 0 -i 0 -k RTR
r -t 1.023564953 -s 3 -d -1 -p AODV -e 48 -c 2 -a 0 -i 0 -k RTR
r -t 1.023565109 -s 5 -d -1 -p AODV -e 48 -c 2 -a 0 -i 0 -k RTR
r -t 1.023565123 -s 15 -d -1 -p AODV -e 48 -c 2 -a 0 -i 0 -k RTR
r -t 1.023565170 -s 33 -d -1 -p AODV -e 48 -c 2 -a 0 -i 0 -k RTR
r -t 1.023565186 -s 38 -d -1 -p AODV -e 48 -c 2 -a 0 -i 0 -k RTR
r -t 1.023565227 -s 23 -d -1 -p AODV -e 48 -c 2 -a 0 -i 0 -k RTR
+ -t 1.023904802 -s 38 -d -1 -p AODV -e 48 -c 2 -a 0 -i 0 -k RTR 
- -t 1.023904802 -s 38 -d -1 -p AODV -e 48 -c 2 -a 0 -i 0 -k RTR
h -t 1.023904802 -s 38 -d -1 -p AODV -e 48 -c 2 -a 0 -i 0 -k RTR
r -t 1.026202914 -s 7 -d -1 -p AODV -e 48 -c 2 -a 0 -i 0 -k RTR
r -t 1.026203033 -s 5 -d -1 -p AODV -e 48 -c 2 -a 0 -i 0 -k RTR
r -t 1.026203036 -s 38 -d -1 -p AODV -e 48 -c 2 -a 0 -i 0 -k RTR
r -t 1.026203180 -s 4 -d -1 -p AODV -e 48 -c 2 -a 0 -i 0 -k RTR
r -t 1.026203189 -s 15 -d -1 -p AODV -e 48 -c 2 -a 0 -i 0 -k RTR
r -t 1.026203203 -s 34 -d -1 -p AODV -e 48 -c 2 -a 0 -i 0 -k RTR
r -t 1.026203240 -s 21 -d -1 -p AODV -e 48 -c 2 -a 0 -i 0 -k RTR
r -t 1.026203276 -s 11 -d -1 -p AODV -e 48 -c 2 -a 0 -i 0 -k RTR
r -t 1.026203298 -s 12 -d -1 -p AODV -e 48 -c 2 -a 0 -i 0 -k RTR
r -t 1.026203342 -s 27 -d -1 -p AODV -e 48 -c 2 -a 0 -i 0 -k RTR
r -t 1.026203358 -s 20 -d -1 -p AODV -e 48 -c 2 -a 0 -i 0 -k RTR
r -t 1.026203363 -s 9 -d -1 -p AODV -e 48 -c 2 -a 0 -i 0 -k RTR