n -t * -s 0  -x 200 -y 200 -Z 0 -z 20  -v circle -c black
n -t * -s 1  -x 200 -y 400 -Z 0 -z 20  -v circle -c black
V -t * -v 1.0a5 -a 0
W -t * -x 500 -y 500
A -t * -n 1 -p 0 -o 0x7fffffff -c 30 -a 1
A -t * -h 1 -m 1073741823 -s 0
+ -t 0.029290548 -s 1 -d -1 -p message -e 32 -c 2 -a 0 -i 0 -k RTR 
- -t 0.029290548 -s 1 -d -1 -p message -e 32 -c 2 -a 0 -i 0 -k RTR
h -t 0.029290548 -s 1 -d -1 -p message -e 32 -c 2 -a 0 -i 0 -k RTR
r -t 0.030111215 -s 0 -d -1 -p message -e 32 -c 2 -a 0 -i 0 -k RTR
+ -t 1.000000000 -s 0 -d -1 -p tcp -e 40 -c 2 -a 0 -i 1 -k AGT 
- -t 1.000000000 -s 0 -d -1 -p tcp -e 40 -c 2 -a 0 -i 1 -k AGT
h -t 1.000000000 -s 0 -d -1 -p tcp -e 40 -c 2 -a 0 -i 1 -k AGT
+ -t 1.000000000 -s 0 -d 1 -p tcp -e 60 -c 2 -a 0 -i 1 -k RTR 
- -t 1.000000000 -s 0 -d 1 -p tcp -e 60 -c 2 -a 0 -i 1 -k RTR
h -t 1.000000000 -s 0 -d 1 -p tcp -e 60 -c 2 -a 0 -i 1 -k RTR
r -t 1.004995667 -s 1 -d 1 -p tcp -e 60 -c 2 -a 0 -i 1 -k AGT
+ -t 1.004995667 -s 1 -d -1 -p ack -e 40 -c 2 -a 0 -i 2 -k AGT 
- -t 1.004995667 -s 1 -d -1 -p ack -e 40 -c 2 -a 0 -i 2 -k AGT
h -t 1.004995667 -s 1 -d -1 -p ack -e 40 -c 2 -a 0 -i 2 -k AGT
+ -t 1.112189378 -s 0 -d -1 -p message -e 32 -c 2 -a 0 -i 3 -k RTR 
- -t 1.112189378 -s 0 -d -1 -p message -e 32 -c 2 -a 0 -i 3 -k RTR
h -t 1.112189378 -s 0 -d -1 -p message -e 32 -c 2 -a 0 -i 3 -k RTR
r -t 1.113370044 -s 1 -d -1 -p message -e 32 -c 2 -a 0 -i 3 -k RTR
+ -t 1.113370044 -s 1 -d 0 -p ack -e 80 -c 2 -a 0 -i 2 -k RTR 
- -t 1.113370044 -s 1 -d 0 -p ack -e 80 -c 2 -a 0 -i 2 -k RTR
h -t 1.113370044 -s 1 -d 0 -p ack -e 80 -c 2 -a 0 -i 2 -k RTR
r -t 1.115412044 -s 0 -d 0 -p ack -e 80 -c 2 -a 0 -i 2 -k AGT
+ -t 1.115412044 -s 0 -d -1 -p tcp -e 1040 -c 2 -a 0 -i 4 -k AGT 
- -t 1.115412044 -s 0 -d -1 -p tcp -e 1040 -c 2 -a 0 -i 4 -k AGT
h -t 1.115412044 -s 0 -d -1 -p tcp -e 1040 -c 2 -a 0 -i 4 -k AGT
+ -t 1.115412044 -s 0 -d 1 -p tcp -e 1060 -c 2 -a 0 -i 4 -k RTR 
- -t 1.115412044 -s 0 -d 1 -p tcp -e 1060 -c 2 -a 0 -i 4 -k RTR
h -t 1.115412044 -s 0 -d 1 -p tcp -e 1060 -c 2 -a 0 -i 4 -k RTR
+ -t 1.115412044 -s 0 -d -1 -p tcp -e 1040 -c 2 -a 0 -i 5 -k AGT 
- -t 1.115412044 -s 0 -d -1 -p tcp -e 1040 -c 2 -a 0 -i 5 -k AGT
h -t 1.115412044 -s 0 -d -1 -p tcp -e 1040 -c 2 -a 0 -i 5 -k AGT
+ -t 1.115412044 -s 0 -d 1 -p tcp -e 1060 -c 2 -a 0 -i 5 -k RTR 
- -t 1.115412044 -s 0 -d 1 -p tcp -e 1060 -c 2 -a 0 -i 5 -k RTR
h -t 1.115412044 -s 0 -d 1 -p tcp -e 1060 -c 2 -a 0 -i 5 -k RTR
r -t 1.125438044 -s 1 -d 1 -p tcp -e 1060 -c 2 -a 0 -i 4 -k AGT
+ -t 1.125438044 -s 1 -d -1 -p ack -e 40 -c 2 -a 0 -i 6 -k AGT 
- -t 1.125438044 -s 1 -d -1 -p ack -e 40 -c 2 -a 0 -i 6 -k AGT
h -t 1.125438044 -s 1 -d -1 -p ack -e 40 -c 2 -a 0 -i 6 -k AGT
+ -t 1.125438044 -s 1 -d 0 -p ack -e 60 -c 2 -a 0 -i 6 -k RTR 
- -t 1.125438044 -s 1 -d 0 -p ack -e 60 -c 2 -a 0 -i 6 -k RTR
h -t 1.125438044 -s 1 -d 0 -p ack -e 60 -c 2 -a 0 -i 6 -k RTR
r -t 1.135764711 -s 1 -d 1 -p tcp -e 1060 -c 2 -a 0 -i 5 -k AGT
+ -t 1.135764711 -s 1 -d -1 -p ack -e 40 -c 2 -a 0 -i 7 -k AGT 
- -t 1.135764711 -s 1 -d -1 -p ack -e 40 -c 2 -a 0 -i 7 -k AGT
h -t 1.135764711 -s 1 -d -1 -p ack -e 40 -c 2 -a 0 -i 7 -k AGT
+ -t 1.135764711 -s 1 -d 0 -p ack -e 60 -c 2 -a 0 -i 7 -k RTR 
- -t 1.135764711 -s 1 -d 0 -p ack -e 60 -c 2 -a 0 -i 7 -k RTR
h -t 1.135764711 -s 1 -d 0 -p ack -e 60 -c 2 -a 0 -i 7 -k RTR
r -t 1.137870711 -s 0 -d 0 -p ack -e 60 -c 2 -a 0 -i 6 -k AGT
+ -t 1.137870711 -s 0 -d -1 -p tcp -e 1040 -c 2 -a 0 -i 8 -k AGT 
- -t 1.137870711 -s 0 -d -1 -p tcp -e 1040 -c 2 -a 0 -i 8 -k AGT
h -t 1.137870711 -s 0 -d -1 -p tcp -e 1040 -c 2 -a 0 -i 8 -k AGT
+ -t 1.137870711 -s 0 -d 1 -p tcp -e 1060 -c 2 -a 0 -i 8 -k RTR 
- -t 1.137870711 -s 0 -d 1 -p tcp -e 1060 -c 2 -a 0 -i 8 -k RTR
h -t 1.137870711 -s 0 -d 1 -p tcp -e 1060 -c 2 -a 0 -i 8 -k RTR
+ -t 1.137870711 -s 0 -d -1 -p tcp -e 1040 -c 2 -a 0 -i 9 -k AGT 
- -t 1.137870711 -s 0 -d -1 -p tcp -e 1040 -c 2 -a 0 -i 9 -k AGT
h -t 1.137870711 -s 0 -d -1 -p tcp -e 1040 -c 2 -a 0 -i 9 -k AGT
+ -t 1.137870711 -s 0 -d 1 -p tcp -e 1060 -c 2 -a 0 -i 9 -k RTR 
- -t 1.137870711 -s 0 -d 1 -p tcp -e 1060 -c 2 -a 0 -i 9 -k RTR
h -t 1.137870711 -s 0 -d 1 -p tcp -e 1060 -c 2 -a 0 -i 9 -k RTR
r -t 1.140057378 -s 0 -d 0 -p ack -e 60 -c 2 -a 0 -i 7 -k AGT
+ -t 1.140057378 -s 0 -d -1 -p tcp -e 1040 -c 2 -a 0 -i 10 -k AGT 
- -t 1.140057378 -s 0 -d -1 -p tcp -e 1040 -c 2 -a 0 -i 10 -k AGT
h -t 1.140057378 -s 0 -d -1 -p tcp -e 1040 -c 2 -a 0 -i 10 -k AGT
+ -t 1.140057378 -s 0 -d 1 -p tcp -e 1060 -c 2 -a 0 -i 10 -k RTR 
- -t 1.140057378 -s 0 -d 1 -p tcp -e 1060 -c 2 -a 0 -i 10 -k RTR
h -t 1.140057378 -s 0 -d 1 -p tcp -e 1060 -c 2 -a 0 -i 10 -k RTR
+ -t 1.140057378 -s 0 -d -1 -p tcp -e 1040 -c 2 -a 0 -i 11 -k AGT 
- -t 1.140057378 -s 0 -d -1 -p tcp -e 1040 -c 2 -a 0 -i 11 -k AGT
h -t 1.140057378 -s 0 -d -1 -p tcp -e 1040 -c 2 -a 0 -i 11 -k AGT
+ -t 1.140057378 -s 0 -d 1 -p tcp -e 1060 -c 2 -a 0 -i 11 -k RTR 
- -t 1.140057378 -s 0 -d 1 -p tcp -e 1060 -c 2 -a 0 -i 11 -k RTR
h -t 1.140057378 -s 0 -d 1 -p tcp -e 1060 -c 2 -a 0 -i 11 -k RTR
r -t 1.150063378 -s 1 -d 1 -p tcp -e 1060 -c 2 -a 0 -i 8 -k AGT
+ -t 1.150063378 -s 1 -d -1 -p ack -e 40 -c 2 -a 0 -i 12 -k AGT 
- -t 1.150063378 -s 1 -d -1 -p ack -e 40 -c 2 -a 0 -i 12 -k AGT
h -t 1.150063378 -s 1 -d -1 -p ack -e 40 -c 2 -a 0 -i 12 -k AGT
+ -t 1.150063378 -s 1 -d 0 -p ack -e 60 -c 2 -a 0 -i 12 -k RTR 
- -t 1.150063378 -s 1 -d 0 -p ack -e 60 -c 2 -a 0 -i 12 -k RTR
h -t 1.150063378 -s 1 -d 0 -p ack -e 60 -c 2 -a 0 -i 12 -k RTR
r -t 1.160070044 -s 1 -d 1 -p tcp -e 1060 -c 2 -a 0 -i 9 -k AGT
+ -t 1.160070044 -s 1 -d -1 -p ack -e 40 -c 2 -a 0 -i 13 -k AGT 
- -t 1.160070044 -s 1 -d -1 -p ack -e 40 -c 2 -a 0 -i 13 -k AGT
h -t 1.160070044 -s 1 -d -1 -p ack -e 40 -c 2 -a 0 -i 13 -k AGT
+ -t 1.160070044 -s 1 -d 0 -p ack -e 60 -c 2 -a 0 -i 13 -k RTR 
- -t 1.160070044 -s 1 -d 0 -p ack -e 60 -c 2 -a 0 -i 13 -k RTR
h -t 1.160070044 -s 1 -d 0 -p ack -e 60 -c 2 -a 0 -i 13 -k RTR
r -t 1.162256044 -s 0 -d 0 -p ack -e 60 -c 2 -a 0 -i 12 -k AGT
+ -t 1.162256044 -s 0 -d -1 -p tcp -e 1040 -c 2 -a 0 -i 14 -k AGT 
- -t 1.162256044 -s 0 -d -1 -p tcp -e 1040 -c 2 -a 0 -i 14 -k AGT
h -t 1.162256044 -s 0 -d -1 -p tcp -e 1040 -c 2 -a 0 -i 14 -k AGT
+ -t 1.162256044 -s 0 -d 1 -p tcp -e 1060 -c 2 -a 0 -i 14 -k RTR 
- -t 1.162256044 -s 0 -d 1 -p tcp -e 1060 -c 2 -a 0 -i 14 -k RTR
h -t 1.162256044 -s 0 -d 1 -p tcp -e 1060 -c 2 -a 0 -i 14 -k RTR
+ -t 1.162256044 -s 0 -d -1 -p tcp -e 1040 -c 2 -a 0 -i 15 -k AGT 
- -t 1.162256044 -s 0 -d -1 -p tcp -e 1040 -c 2 -a 0 -i 15 -k AGT
h -t 1.162256044 -s 0 -d -1 -p tcp -e 1040 -c 2 -a 0 -i 15 -k AGT
+ -t 1.162256044 -s 0 -d 1 -p tcp -e 1060 -c 2 -a 0 -i 15 -k RTR 
- -t 1.162256044 -s 0 -d 1 -p tcp -e 1060 -c 2 -a 0 -i 15 -k RTR
h -t 1.162256044 -s 0 -d 1 -p tcp -e 1060 -c 2 -a 0 -i 15 -k RTR
r -t 1.172302044 -s 1 -d 1 -p tcp -e 1060 -c 2 -a 0 -i 10 -k AGT
+ -t 1.172302044 -s 1 -d -1 -p ack -e 40 -c 2 -a 0 -i 16 -k AGT 
- -t 1.172302044 -s 1 -d -1 -p ack -e 40 -c 2 -a 0 -i 16 -k AGT
h -t 1.172302044 -s 1 -d -1 -p ack -e 40 -c 2 -a 0 -i 16 -k AGT
+ -t 1.172302044 -s 1 -d 0 -p ack -e 60 -c 2 -a 0 -i 16 -k RTR 
- -t 1.172302044 -s 1 -d 0 -p ack -e 60 -c 2 -a 0 -i 16 -k RTR
h -t 1.172302044 -s 1 -d 0 -p ack -e 60 -c 2 -a 0 -i 16 -k RTR
r -t 1.182468711 -s 1 -d 1 -p tcp -e 1060 -c 2 -a 0 -i 11 -k AGT
+ -t 1.182468711 -s 1 -d -1 -p ack -e 40 -c 2 -a 0 -i 17 -k AGT 
- -t 1.182468711 -s 1 -d -1 -p ack -e 40 -c 2 -a 0 -i 17 -k AGT
h -t 1.182468711 -s 1 -d -1 -p ack -e 40 -c 2 -a 0 -i 17 -k AGT
+ -t 1.182468711 -s 1 -d 0 -p ack -e 60 -c 2 -a 0 -i 17 -k RTR 
- -t 1.182468711 -s 1 -d 0 -p ack -e 60 -c 2 -a 0 -i 17 -k RTR
h -t 1.182468711 -s 1 -d 0 -p ack -e 60 -c 2 -a 0 -i 17 -k RTR
r -t 1.184674711 -s 0 -d 0 -p ack -e 60 -c 2 -a 0 -i 13 -k AGT
+ -t 1.184674711 -s 0 -d -1 -p tcp -e 1040 -c 2 -a 0 -i 18 -k AGT 
- -t 1.184674711 -s 0 -d -1 -p tcp -e 1040 -c 2 -a 0 -i 18 -k AGT
h -t 1.184674711 -s 0 -d -1 -p tcp -e 1040 -c 2 -a 0 -i 18 -k AGT
+ -t 1.184674711 -s 0 -d 1 -p tcp -e 1060 -c 2 -a 0 -i 18 -k RTR 
- -t 1.184674711 -s 0 -d 1 -p tcp -e 1060 -c 2 -a 0 -i 18 -k RTR
h -t 1.184674711 -s 0 -d 1 -p tcp -e 1060 -c 2 -a 0 -i 18 -k RTR
+ -t 1.184674711 -s 0 -d -1 -p tcp -e 1040 -c 2 -a 0 -i 19 -k AGT 
- -t 1.184674711 -s 0 -d -1 -p tcp -e 1040 -c 2 -a 0 -i 19 -k AGT
h -t 1.184674711 -s 0 -d -1 -p tcp -e 1040 -c 2 -a 0 -i 19 -k AGT
+ -t 1.184674711 -s 0 -d 1 -p tcp -e 1060 -c 2 -a 0 -i 19 -k RTR 
- -t 1.184674711 -s 0 -d 1 -p tcp -e 1060 -c 2 -a 0 -i 19 -k RTR
h -t 1.184674711 -s 0 -d 1 -p tcp -e 1060 -c 2 -a 0 -i 19 -k RTR
r -t 1.195040711 -s 1 -d 1 -p tcp -e 1060 -c 2 -a 0 -i 14 -k AGT
+ -t 1.195040711 -s 1 -d -1 -p ack -e 40 -c 2 -a 0 -i 20 -k AGT 
- -t 1.195040711 -s 1 -d -1 -p ack -e 40 -c 2 -a 0 -i 20 -k AGT
h -t 1.195040711 -s 1 -d -1 -p ack -e 40 -c 2 -a 0 -i 20 -k AGT
+ -t 1.195040711 -s 1 -d 0 -p ack -e 60 -c 2 -a 0 -i 20 -k RTR 
- -t 1.195040711 -s 1 -d 0 -p ack -e 60 -c 2 -a 0 -i 20 -k RTR
h -t 1.195040711 -s 1 -d 0 -p ack -e 60 -c 2 -a 0 -i 20 -k RTR
r -t 1.197066711 -s 0 -d 0 -p ack -e 60 -c 2 -a 0 -i 16 -k AGT
+ -t 1.197066711 -s 0 -d -1 -p tcp -e 1040 -c 2 -a 0 -i 21 -k AGT 
- -t 1.197066711 -s 0 -d -1 -p tcp -e 1040 -c 2 -a 0 -i 21 -k AGT
h -t 1.197066711 -s 0 -d -1 -p tcp -e 1040 -c 2 -a 0 -i 21 -k AGT
+ -t 1.197066711 -s 0 -d 1 -p tcp -e 1060 -c 2 -a 0 -i 21 -k RTR 
- -t 1.197066711 -s 0 -d 1 -p tcp -e 1060 -c 2 -a 0 -i 21 -k RTR
h -t 1.197066711 -s 0 -d 1 -p tcp -e 1060 -c 2 -a 0 -i 21 -k RTR
+ -t 1.197066711 -s 0 -d -1 -p tcp -e 1040 -c 2 -a 0 -i 22 -k AGT 
- -t 1.197066711 -s 0 -d -1 -p tcp -e 1040 -c 2 -a 0 -i 22 -k AGT
h -t 1.197066711 -s 0 -d -1 -p tcp -e 1040 -c 2 -a 0 -i 22 -k AGT
+ -t 1.197066711 -s 0 -d 1 -p tcp -e 1060 -c 2 -a 0 -i 22 -k RTR 
- -t 1.197066711 -s 0 -d 1 -p tcp -e 1060 -c 2 -a 0 -i 22 -k RTR
h -t 1.197066711 -s 0 -d 1 -p tcp -e 1060 -c 2 -a 0 -i 22 -k RTR
r -t 1.199413378 -s 0 -d 0 -p ack -e 60 -c 2 -a 0 -i 17 -k AGT
+ -t 1.199413378 -s 0 -d -1 -p tcp -e 1040 -c 2 -a 0 -i 23 -k AGT 
- -t 1.199413378 -s 0 -d -1 -p tcp -e 1040 -c 2 -a 0 -i 23 -k AGT
h -t 1.199413378 -s 0 -d -1 -p tcp -e 1040 -c 2 -a 0 -i 23 -k AGT
+ -t 1.199413378 -s 0 -d 1 -p tcp -e 1060 -c 2 -a 0 -i 23 -k RTR 
- -t 1.199413378 -s 0 -d 1 -p tcp -e 1060 -c 2 -a 0 -i 23 -k RTR
h -t 1.199413378 -s 0 -d 1 -p tcp -e 1060 -c 2 -a 0 -i 23 -k RTR
+ -t 1.199413378 -s 0 -d -1 -p tcp -e 1040 -c 2 -a 0 -i 24 -k AGT 
- -t 1.199413378 -s 0 -d -1 -p tcp -e 1040 -c 2 -a 0 -i 24 -k AGT
h -t 1.199413378 -s 0 -d -1 -p tcp -e 1040 -c 2 -a 0 -i 24 -k AGT
+ -t 1.199413378 -s 0 -d 1 -p tcp -e 1060 -c 2 -a 0 -i 24 -k RTR 
- -t 1.199413378 -s 0 -d 1 -p tcp -e 1060 -c 2 -a 0 -i 24 -k RTR
h -t 1.199413378 -s 0 -d 1 -p tcp -e 1060 -c 2 -a 0 -i 24 -k RTR
r -t 1.201440044 -s 0 -d 0 -p ack -e 60 -c 2 -a 0 -i 20 -k AGT
+ -t 1.201440044 -s 0 -d -1 -p tcp -e 1040 -c 2 -a 0 -i 25 -k AGT 
- -t 1.201440044 -s 0 -d -1 -p tcp -e 1040 -c 2 -a 0 -i 25 -k AGT
h -t 1.201440044 -s 0 -d -1 -p tcp -e 1040 -c 2 -a 0 -i 25 -k AGT
+ -t 1.201440044 -s 0 -d 1 -p tcp -e 1060 -c 2 -a 0 -i 25 -k RTR 
- -t 1.201440044 -s 0 -d 1 -p tcp -e 1060 -c 2 -a 0 -i 25 -k RTR
h -t 1.201440044 -s 0 -d 1 -p tcp -e 1060 -c 2 -a 0 -i 25 -k RTR
+ -t 1.201440044 -s 0 -d -1 -p tcp -e 1040 -c 2 -a 0 -i 26 -k AGT 
- -t 1.201440044 -s 0 -d -1 -p tcp -e 1040 -c 2 -a 0 -i 26 -k AGT
h -t 1.201440044 -s 0 -d -1 -p tcp -e 1040 -c 2 -a 0 -i 26 -k AGT
+ -t 1.201440044 -s 0 -d 1 -p tcp -e 1060 -c 2 -a 0 -i 26 -k RTR 
- -t 1.201440044 -s 0 -d 1 -p tcp -e 1060 -c 2 -a 0 -i 26 -k RTR
h -t 1.201440044 -s 0 -d 1 -p tcp -e 1060 -c 2 -a 0 -i 26 -k RTR
r -t 1.211546044 -s 1 -d 1 -p tcp -e 1060 -c 2 -a 0 -i 15 -k AGT
+ -t 1.211546044 -s 1 -d -1 -p ack -e 40 -c 2 -a 0 -i 27 -k AGT 
- -t 1.211546044 -s 1 -d -1 -p ack -e 40 -c 2 -a 0 -i 27 -k AGT
h -t 1.211546044 -s 1 -d -1 -p ack -e 40 -c 2 -a 0 -i 27 -k AGT
+ -t 1.211546044 -s 1 -d 0 -p ack -e 60 -c 2 -a 0 -i 27 -k RTR 
- -t 1.211546044 -s 1 -d 0 -p ack -e 60 -c 2 -a 0 -i 27 -k RTR
h -t 1.211546044 -s 1 -d 0 -p ack -e 60 -c 2 -a 0 -i 27 -k RTR
r -t 1.213732044 -s 0 -d 0 -p ack -e 60 -c 2 -a 0 -i 27 -k AGT
+ -t 1.213732044 -s 0 -d -1 -p tcp -e 1040 -c 2 -a 0 -i 28 -k AGT 
- -t 1.213732044 -s 0 -d -1 -p tcp -e 1040 -c 2 -a 0 -i 28 -k AGT
h -t 1.213732044 -s 0 -d -1 -p tcp -e 1040 -c 2 -a 0 -i 28 -k AGT
+ -t 1.213732044 -s 0 -d 1 -p tcp -e 1060 -c 2 -a 0 -i 28 -k RTR 
- -t 1.213732044 -s 0 -d 1 -p tcp -e 1060 -c 2 -a 0 -i 28 -k RTR
h -t 1.213732044 -s 0 -d 1 -p tcp -e 1060 -c 2 -a 0 -i 28 -k RTR
+ -t 1.213732044 -s 0 -d -1 -p tcp -e 1040 -c 2 -a 0 -i 29 -k AGT 
- -t 1.213732044 -s 0 -d -1 -p tcp -e 1040 -c 2 -a 0 -i 29 -k AGT
h -t 1.213732044 -s 0 -d -1 -p tcp -e 1040 -c 2 -a 0 -i 29 -k AGT
+ -t 1.213732044 -s 0 -d 1 -p tcp -e 1060 -c 2 -a 0 -i 29 -k RTR 
- -t 1.213732044 -s 0 -d 1 -p tcp -e 1060 -c 2 -a 0 -i 29 -k RTR
h -t 1.213732044 -s 0 -d 1 -p tcp -e 1060 -c 2 -a 0 -i 29 -k RTR
r -t 1.223898044 -s 1 -d 1 -p tcp -e 1060 -c 2 -a 0 -i 18 -k AGT
+ -t 1.223898044 -s 1 -d -1 -p ack -e 40 -c 2 -a 0 -i 30 -k AGT 
- -t 1.223898044 -s 1 -d -1 -p ack -e 40 -c 2 -a 0 -i 30 -k AGT
h -t 1.223898044 -s 1 -d -1 -p ack -e 40 -c 2 -a 0 -i 30 -k AGT
+ -t 1.223898044 -s 1 -d 0 -p ack -e 60 -c 2 -a 0 -i 30 -k RTR 
- -t 1.223898044 -s 1 -d 0 -p ack -e 60 -c 2 -a 0 -i 30 -k RTR
h -t 1.223898044 -s 1 -d 0 -p ack -e 60 -c 2 -a 0 -i 30 -k RTR
r -t 1.225964044 -s 0 -d 0 -p ack -e 60 -c 2 -a 0 -i 30 -k AGT
+ -t 1.225964044 -s 0 -d -1 -p tcp -e 1040 -c 2 -a 0 -i 31 -k AGT 
- -t 1.225964044 -s 0 -d -1 -p tcp -e 1040 -c 2 -a 0 -i 31 -k AGT
h -t 1.225964044 -s 0 -d -1 -p tcp -e 1040 -c 2 -a 0 -i 31 -k AGT
+ -t 1.225964044 -s 0 -d 1 -p tcp -e 1060 -c 2 -a 0 -i 31 -k RTR 
- -t 1.225964044 -s 0 -d 1 -p tcp -e 1060 -c 2 -a 0 -i 31 -k RTR
h -t 1.225964044 -s 0 -d 1 -p tcp -e 1060 -c 2 -a 0 -i 31 -k RTR
+ -t 1.225964044 -s 0 -d -1 -p tcp -e 1040 -c 2 -a 0 -i 32 -k AGT 
- -t 1.225964044 -s 0 -d -1 -p tcp -e 1040 -c 2 -a 0 -i 32 -k AGT
h -t 1.225964044 -s 0 -d -1 -p tcp -e 1040 -c 2 -a 0 -i 32 -k AGT
+ -t 1.225964044 -s 0 -d 1 -p tcp -e 1060 -c 2 -a 0 -i 32 -k RTR 
- -t 1.225964044 -s 0 -d 1 -p tcp -e 1060 -c 2 -a 0 -i 32 -k RTR
h -t 1.225964044 -s 0 -d 1 -p tcp -e 1060 -c 2 -a 0 -i 32 -k RTR
r -t 1.236170044 -s 1 -d 1 -p tcp -e 1060 -c 2 -a 0 -i 19 -k AGT
+ -t 1.236170044 -s 1 -d -1 -p ack -e 40 -c 2 -a 0 -i 33 -k AGT 
- -t 1.236170044 -s 1 -d -1 -p ack -e 40 -c 2 -a 0 -i 33 -k AGT
h -t 1.236170044 -s 1 -d -1 -p ack -e 40 -c 2 -a 0 -i 33 -k AGT
+ -t 1.236170044 -s 1 -d 0 -p ack -e 60 -c 2 -a 0 -i 33 -k RTR 
- -t 1.236170044 -s 1 -d 0 -p ack -e 60 -c 2 -a 0 -i 33 -k RTR
h -t 1.236170044 -s 1 -d 0 -p ack -e 60 -c 2 -a 0 -i 33 -k RTR
r -t 1.238256044 -s 0 -d 0 -p ack -e 60 -c 2 -a 0 -i 33 -k AGT
+ -t 1.238256044 -s 0 -d -1 -p tcp -e 1040 -c 2 -a 0 -i 34 -k AGT 
- -t 1.238256044 -s 0 -d -1 -p tcp -e 1040 -c 2 -a 0 -i 34 -k AGT
h -t 1.238256044 -s 0 -d -1 -p tcp -e 1040 -c 2 -a 0 -i 34 -k AGT
+ -t 1.238256044 -s 0 -d 1 -p tcp -e 1060 -c 2 -a 0 -i 34 -k RTR 
- -t 1.238256044 -s 0 -d 1 -p tcp -e 1060 -c 2 -a 0 -i 34 -k RTR
h -t 1.238256044 -s 0 -d 1 -p tcp -e 1060 -c 2 -a 0 -i 34 -k RTR
+ -t 1.238256044 -s 0 -d -1 -p tcp -e 1040 -c 2 -a 0 -i 35 -k AGT 
- -t 1.238256044 -s 0 -d -1 -p tcp -e 1040 -c 2 -a 0 -i 35 -k AGT
h -t 1.238256044 -s 0 -d -1 -p tcp -e 1040 -c 2 -a 0 -i 35 -k AGT
+ -t 1.238256044 -s 0 -d 1 -p tcp -e 1060 -c 2 -a 0 -i 35 -k RTR 
- -t 1.238256044 -s 0 -d 1 -p tcp -e 1060 -c 2 -a 0 -i 35 -k RTR
h -t 1.238256044 -s 0 -d 1 -p tcp -e 1060 -c 2 -a 0 -i 35 -k RTR
r -t 1.248682044 -s 1 -d 1 -p tcp -e 1060 -c 2 -a 0 -i 21 -k AGT
+ -t 1.248682044 -s 1 -d -1 -p ack -e 40 -c 2 -a 0 -i 36 -k AGT 
- -t 1.248682044 -s 1 -d -1 -p ack -e 40 -c 2 -a 0 -i 36 -k AGT
h -t 1.248682044 -s 1 -d -1 -p ack -e 40 -c 2 -a 0 -i 36 -k AGT
+ -t 1.248682044 -s 1 -d 0 -p ack -e 60 -c 2 -a 0 -i 36 -k RTR 
- -t 1.248682044 -s 1 -d 0 -p ack -e 60 -c 2 -a 0 -i 36 -k RTR
h -t 1.248682044 -s 1 -d 0 -p ack -e 60 -c 2 -a 0 -i 36 -k RTR
r -t 1.250868044 -s 0 -d 0 -p ack -e 60 -c 2 -a 0 -i 36 -k AGT
+ -t 1.250868044 -s 0 -d -1 -p tcp -e 1040 -c 2 -a 0 -i 37 -k AGT 
- -t 1.250868044 -s 0 -d -1 -p tcp -e 1040 -c 2 -a 0 -i 37 -k AGT
h -t 1.250868044 -s 0 -d -1 -p tcp -e 1040 -c 2 -a 0 -i 37 -k AGT
+ -t 1.250868044 -s 0 -d 1 -p tcp -e 1060 -c 2 -a 0 -i 37 -k RTR 
- -t 1.250868044 -s 0 -d 1 -p tcp -e 1060 -c 2 -a 0 -i 37 -k RTR
h -t 1.250868044 -s 0 -d 1 -p tcp -e 1060 -c 2 -a 0 -i 37 -k RTR
+ -t 1.250868044 -s 0 -d -1 -p tcp -e 1040 -c 2 -a 0 -i 38 -k AGT 
- -t 1.250868044 -s 0 -d -1 -p tcp -e 1040 -c 2 -a 0 -i 38 -k AGT
h -t 1.250868044 -s 0 -d -1 -p tcp -e 1040 -c 2 -a 0 -i 38 -k AGT
+ -t 1.250868044 -s 0 -d 1 -p tcp -e 1060 -c 2 -a 0 -i 38 -k RTR 
- -t 1.250868044 -s 0 -d 1 -p tcp -e 1060 -c 2 -a 0 -i 38 -k RTR
h -t 1.250868044 -s 0 -d 1 -p tcp -e 1060 -c 2 -a 0 -i 38 -k RTR
r -t 1.261254044 -s 1 -d 1 -p tcp -e 1060 -c 2 -a 0 -i 22 -k AGT
+ -t 1.261254044 -s 1 -d -1 -p ack -e 40 -c 2 -a 0 -i 39 -k AGT 
- -t 1.261254044 -s 1 -d -1 -p ack -e 40 -c 2 -a 0 -i 39 -k AGT
h -t 1.261254044 -s 1 -d -1 -p ack -e 40 -c 2 -a 0 -i 39 -k AGT
+ -t 1.261254044 -s 1 -d 0 -p ack -e 60 -c 2 -a 0 -i 39 -k RTR 
- -t 1.261254044 -s 1 -d 0 -p ack -e 60 -c 2 -a 0 -i 39 -k RTR
h -t 1.261254044 -s 1 -d 0 -p ack -e 60 -c 2 -a 0 -i 39 -k RTR
r -t 1.263360044 -s 0 -d 0 -p ack -e 60 -c 2 -a 0 -i 39 -k AGT
+ -t 1.263360044 -s 0 -d -1 -p tcp -e 1040 -c 2 -a 0 -i 40 -k AGT 
- -t 1.263360044 -s 0 -d -1 -p tcp -e 1040 -c 2 -a 0 -i 40 -k AGT
h -t 1.263360044 -s 0 -d -1 -p tcp -e 1040 -c 2 -a 0 -i 40 -k AGT
+ -t 1.263360044 -s 0 -d 1 -p tcp -e 1060 -c 2 -a 0 -i 40 -k RTR 
- -t 1.263360044 -s 0 -d 1 -p tcp -e 1060 -c 2 -a 0 -i 40 -k RTR
h -t 1.263360044 -s 0 -d 1 -p tcp -e 1060 -c 2 -a 0 -i 40 -k RTR
+ -t 1.263360044 -s 0 -d -1 -p tcp -e 1040 -c 2 -a 0 -i 41 -k AGT 
- -t 1.263360044 -s 0 -d -1 -p tcp -e 1040 -c 2 -a 0 -i 41 -k AGT
h -t 1.263360044 -s 0 -d -1 -p tcp -e 1040 -c 2 -a 0 -i 41 -k AGT
+ -t 1.263360044 -s 0 -d 1 -p tcp -e 1060 -c 2 -a 0 -i 41 -k RTR 
- -t 1.263360044 -s 0 -d 1 -p tcp -e 1060 -c 2 -a 0 -i 41 -k RTR
h -t 1.263360044 -s 0 -d 1 -p tcp -e 1060 -c 2 -a 0 -i 41 -k RTR
r -t 1.273586044 -s 1 -d 1 -p tcp -e 1060 -c 2 -a 0 -i 23 -k AGT
+ -t 1.273586044 -s 1 -d -1 -p ack -e 40 -c 2 -a 0 -i 42 -k AGT 
- -t 1.273586044 -s 1 -d -1 -p ack -e 40 -c 2 -a 0 -i 42 -k AGT
h -t 1.273586044 -s 1 -d -1 -p ack -e 40 -c 2 -a 0 -i 42 -k AGT
+ -t 1.273586044 -s 1 -d 0 -p ack -e 60 -c 2 -a 0 -i 42 -k RTR 
- -t 1.273586044 -s 1 -d 0 -p ack -e 60 -c 2 -a 0 -i 42 -k RTR
h -t 1.273586044 -s 1 -d 0 -p ack -e 60 -c 2 -a 0 -i 42 -k RTR
r -t 1.285098711 -s 1 -d 1 -p tcp -e 1060 -c 2 -a 0 -i 24 -k AGT
+ -t 1.285098711 -s 1 -d -1 -p ack -e 40 -c 2 -a 0 -i 43 -k AGT 
- -t 1.285098711 -s 1 -d -1 -p ack -e 40 -c 2 -a 0 -i 43 -k AGT
h -t 1.285098711 -s 1 -d -1 -p ack -e 40 -c 2 -a 0 -i 43 -k AGT
+ -t 1.285098711 -s 1 -d 0 -p ack -e 60 -c 2 -a 0 -i 43 -k RTR 
- -t 1.285098711 -s 1 -d 0 -p ack -e 60 -c 2 -a 0 -i 43 -k RTR
h -t 1.285098711 -s 1 -d 0 -p ack -e 60 -c 2 -a 0 -i 43 -k RTR
r -t 1.288372044 -s 0 -d 0 -p ack -e 60 -c 2 -a 0 -i 42 -k AGT
+ -t 1.288372044 -s 0 -d -1 -p tcp -e 1040 -c 2 -a 0 -i 44 -k AGT 
- -t 1.288372044 -s 0 -d -1 -p tcp -e 1040 -c 2 -a 0 -i 44 -k AGT
h -t 1.288372044 -s 0 -d -1 -p tcp -e 1040 -c 2 -a 0 -i 44 -k AGT
+ -t 1.288372044 -s 0 -d 1 -p tcp -e 1060 -c 2 -a 0 -i 44 -k RTR 
- -t 1.288372044 -s 0 -d 1 -p tcp -e 1060 -c 2 -a 0 -i 44 -k RTR
h -t 1.288372044 -s 0 -d 1 -p tcp -e 1060 -c 2 -a 0 -i 44 -k RTR
+ -t 1.288372044 -s 0 -d -1 -p tcp -e 1040 -c 2 -a 0 -i 45 -k AGT 
- -t 1.288372044 -s 0 -d -1 -p tcp -e 1040 -c 2 -a 0 -i 45 -k AGT
h -t 1.288372044 -s 0 -d -1 -p tcp -e 1040 -c 2 -a 0 -i 45 -k AGT
+ -t 1.288372044 -s 0 -d 1 -p tcp -e 1060 -c 2 -a 0 -i 45 -k RTR 
- -t 1.288372044 -s 0 -d 1 -p tcp -e 1060 -c 2 -a 0 -i 45 -k RTR
h -t 1.288372044 -s 0 -d 1 -p tcp -e 1060 -c 2 -a 0 -i 45 -k RTR
r -t 1.290678711 -s 0 -d 0 -p ack -e 60 -c 2 -a 0 -i 43 -k AGT
+ -t 1.290678711 -s 0 -d -1 -p tcp -e 1040 -c 2 -a 0 -i 46 -k AGT 
- -t 1.290678711 -s 0 -d -1 -p tcp -e 1040 -c 2 -a 0 -i 46 -k AGT
h -t 1.290678711 -s 0 -d -1 -p tcp -e 1040 -c 2 -a 0 -i 46 -k AGT
+ -t 1.290678711 -s 0 -d 1 -p tcp -e 1060 -c 2 -a 0 -i 46 -k RTR 
- -t 1.290678711 -s 0 -d 1 -p tcp -e 1060 -c 2 -a 0 -i 46 -k RTR
h -t 1.290678711 -s 0 -d 1 -p tcp -e 1060 -c 2 -a 0 -i 46 -k RTR
+ -t 1.290678711 -s 0 -d -1 -p tcp -e 1040 -c 2 -a 0 -i 47 -k AGT 
- -t 1.290678711 -s 0 -d -1 -p tcp -e 1040 -c 2 -a 0 -i 47 -k AGT
h -t 1.290678711 -s 0 -d -1 -p tcp -e 1040 -c 2 -a 0 -i 47 -k AGT
+ -t 1.290678711 -s 0 -d 1 -p tcp -e 1060 -c 2 -a 0 -i 47 -k RTR 
- -t 1.290678711 -s 0 -d 1 -p tcp -e 1060 -c 2 -a 0 -i 47 -k RTR
h -t 1.290678711 -s 0 -d 1 -p tcp -e 1060 -c 2 -a 0 -i 47 -k RTR
r -t 1.301284711 -s 1 -d 1 -p tcp -e 1060 -c 2 -a 0 -i 25 -k AGT
+ -t 1.301284711 -s 1 -d -1 -p ack -e 40 -c 2 -a 0 -i 48 -k AGT 
- -t 1.301284711 -s 1 -d -1 -p ack -e 40 -c 2 -a 0 -i 48 -k AGT
h -t 1.301284711 -s 1 -d -1 -p ack -e 40 -c 2 -a 0 -i 48 -k AGT
+ -t 1.301284711 -s 1 -d 0 -p ack -e 60 -c 2 -a 0 -i 48 -k RTR 
- -t 1.301284711 -s 1 -d 0 -p ack -e 60 -c 2 -a 0 -i 48 -k RTR
h -t 1.301284711 -s 1 -d 0 -p ack -e 60 -c 2 -a 0 -i 48 -k RTR
r -t 1.311351378 -s 1 -d 1 -p tcp -e 1060 -c 2 -a 0 -i 26 -k AGT
+ -t 1.311351378 -s 1 -d -1 -p ack -e 40 -c 2 -a 0 -i 49 -k AGT 
- -t 1.311351378 -s 1 -d -1 -p ack -e 40 -c 2 -a 0 -i 49 -k AGT
h -t 1.311351378 -s 1 -d -1 -p ack -e 40 -c 2 -a 0 -i 49 -k AGT
+ -t 1.311351378 -s 1 -d 0 -p ack -e 60 -c 2 -a 0 -i 49 -k RTR 
- -t 1.311351378 -s 1 -d 0 -p ack -e 60 -c 2 -a 0 -i 49 -k RTR
h -t 1.311351378 -s 1 -d 0 -p ack -e 60 -c 2 -a 0 -i 49 -k RTR
r -t 1.313477378 -s 0 -d 0 -p ack -e 60 -c 2 -a 0 -i 48 -k AGT
+ -t 1.313477378 -s 0 -d -1 -p tcp -e 1040 -c 2 -a 0 -i 50 -k AGT 
- -t 1.313477378 -s 0 -d -1 -p tcp -e 1040 -c 2 -a 0 -i 50 -k AGT
h -t 1.313477378 -s 0 -d -1 -p tcp -e 1040 -c 2 -a 0 -i 50 -k AGT
+ -t 1.313477378 -s 0 -d 1 -p tcp -e 1060 -c 2 -a 0 -i 50 -k RTR 
- -t 1.313477378 -s 0 -d 1 -p tcp -e 1060 -c 2 -a 0 -i 50 -k RTR
h -t 1.313477378 -s 0 -d 1 -p tcp -e 1060 -c 2 -a 0 -i 50 -k RTR
+ -t 1.313477378 -s 0 -d -1 -p tcp -e 1040 -c 2 -a 0 -i 51 -k AGT 
- -t 1.313477378 -s 0 -d -1 -p tcp -e 1040 -c 2 -a 0 -i 51 -k AGT
h -t 1.313477378 -s 0 -d -1 -p tcp -e 1040 -c 2 -a 0 -i 51 -k AGT
+ -t 1.313477378 -s 0 -d 1 -p tcp -e 1060 -c 2 -a 0 -i 51 -k RTR 
- -t 1.313477378 -s 0 -d 1 -p tcp -e 1060 -c 2 -a 0 -i 51 -k RTR
h -t 1.313477378 -s 0 -d 1 -p tcp -e 1060 -c 2 -a 0 -i 51 -k RTR
r -t 1.315464044 -s 0 -d 0 -p ack -e 60 -c 2 -a 0 -i 49 -k AGT
+ -t 1.315464044 -s 0 -d -1 -p tcp -e 1040 -c 2 -a 0 -i 52 -k AGT 
- -t 1.315464044 -s 0 -d -1 -p tcp -e 1040 -c 2 -a 0 -i 52 -k AGT
h -t 1.315464044 -s 0 -d -1 -p tcp -e 1040 -c 2 -a 0 -i 52 -k AGT
+ -t 1.315464044 -s 0 -d 1 -p tcp -e 1060 -c 2 -a 0 -i 52 -k RTR 
- -t 1.315464044 -s 0 -d 1 -p tcp -e 1060 -c 2 -a 0 -i 52 -k RTR
h -t 1.315464044 -s 0 -d 1 -p tcp -e 1060 -c 2 -a 0 -i 52 -k RTR
+ -t 1.315464044 -s 0 -d -1 -p tcp -e 1040 -c 2 -a 0 -i 53 -k AGT 
- -t 1.315464044 -s 0 -d -1 -p tcp -e 1040 -c 2 -a 0 -i 53 -k AGT
h -t 1.315464044 -s 0 -d -1 -p tcp -e 1040 -c 2 -a 0 -i 53 -k AGT
+ -t 1.315464044 -s 0 -d 1 -p tcp -e 1060 -c 2 -a 0 -i 53 -k RTR 
- -t 1.315464044 -s 0 -d 1 -p tcp -e 1060 -c 2 -a 0 -i 53 -k RTR
h -t 1.315464044 -s 0 -d 1 -p tcp -e 1060 -c 2 -a 0 -i 53 -k RTR
r -t 1.325630044 -s 1 -d 1 -p tcp -e 1060 -c 2 -a 0 -i 28 -k AGT
+ -t 1.325630044 -s 1 -d -1 -p ack -e 40 -c 2 -a 0 -i 54 -k AGT 
- -t 1.325630044 -s 1 -d -1 -p ack -e 40 -c 2 -a 0 -i 54 -k AGT
h -t 1.325630044 -s 1 -d -1 -p ack -e 40 -c 2 -a 0 -i 54 -k AGT
+ -t 1.325630044 -s 1 -d 0 -p ack -e 60 -c 2 -a 0 -i 54 -k RTR 
- -t 1.325630044 -s 1 -d 0 -p ack -e 60 -c 2 -a 0 -i 54 -k RTR
h -t 1.325630044 -s 1 -d 0 -p ack -e 60 -c 2 -a 0 -i 54 -k RTR
r -t 1.327696044 -s 0 -d 0 -p ack -e 60 -c 2 -a 0 -i 54 -k AGT
+ -t 1.327696044 -s 0 -d -1 -p tcp -e 1040 -c 2 -a 0 -i 55 -k AGT 
- -t 1.327696044 -s 0 -d -1 -p tcp -e 1040 -c 2 -a 0 -i 55 -k AGT
h -t 1.327696044 -s 0 -d -1 -p tcp -e 1040 -c 2 -a 0 -i 55 -k AGT
+ -t 1.327696044 -s 0 -d 1 -p tcp -e 1060 -c 2 -a 0 -i 55 -k RTR 
- -t 1.327696044 -s 0 -d 1 -p tcp -e 1060 -c 2 -a 0 -i 55 -k RTR
h -t 1.327696044 -s 0 -d 1 -p tcp -e 1060 -c 2 -a 0 -i 55 -k RTR
+ -t 1.327696044 -s 0 -d -1 -p tcp -e 1040 -c 2 -a 0 -i 56 -k AGT 
- -t 1.327696044 -s 0 -d -1 -p tcp -e 1040 -c 2 -a 0 -i 56 -k AGT
h -t 1.327696044 -s 0 -d -1 -p tcp -e 1040 -c 2 -a 0 -i 56 -k AGT
+ -t 1.327696044 -s 0 -d 1 -p tcp -e 1060 -c 2 -a 0 -i 56 -k RTR 
- -t 1.327696044 -s 0 -d 1 -p tcp -e 1060 -c 2 -a 0 -i 56 -k RTR
h -t 1.327696044 -s 0 -d 1 -p tcp -e 1060 -c 2 -a 0 -i 56 -k RTR
r -t 1.337922044 -s 1 -d 1 -p tcp -e 1060 -c 2 -a 0 -i 29 -k AGT
+ -t 1.337922044 -s 1 -d -1 -p ack -e 40 -c 2 -a 0 -i 57 -k AGT 
- -t 1.337922044 -s 1 -d -1 -p ack -e 40 -c 2 -a 0 -i 57 -k AGT
h -t 1.337922044 -s 1 -d -1 -p ack -e 40 -c 2 -a 0 -i 57 -k AGT
+ -t 1.337922044 -s 1 -d 0 -p ack -e 60 -c 2 -a 0 -i 57 -k RTR 
- -t 1.337922044 -s 1 -d 0 -p ack -e 60 -c 2 -a 0 -i 57 -k RTR
h -t 1.337922044 -s 1 -d 0 -p ack -e 60 -c 2 -a 0 -i 57 -k RTR
r -t 1.347928711 -s 1 -d 1 -p tcp -e 1060 -c 2 -a 0 -i 31 -k AGT
+ -t 1.347928711 -s 1 -d -1 -p ack -e 40 -c 2 -a 0 -i 58 -k AGT 
- -t 1.347928711 -s 1 -d -1 -p ack -e 40 -c 2 -a 0 -i 58 -k AGT
h -t 1.347928711 -s 1 -d -1 -p ack -e 40 -c 2 -a 0 -i 58 -k AGT
+ -t 1.347928711 -s 1 -d 0 -p ack -e 60 -c 2 -a 0 -i 58 -k RTR 
- -t 1.347928711 -s 1 -d 0 -p ack -e 60 -c 2 -a 0 -i 58 -k RTR
h -t 1.347928711 -s 1 -d 0 -p ack -e 60 -c 2 -a 0 -i 58 -k RTR
r -t 1.349954711 -s 0 -d 0 -p ack -e 60 -c 2 -a 0 -i 57 -k AGT
+ -t 1.349954711 -s 0 -d -1 -p tcp -e 1040 -c 2 -a 0 -i 59 -k AGT 
- -t 1.349954711 -s 0 -d -1 -p tcp -e 1040 -c 2 -a 0 -i 59 -k AGT
h -t 1.349954711 -s 0 -d -1 -p tcp -e 1040 -c 2 -a 0 -i 59 -k AGT
+ -t 1.349954711 -s 0 -d 1 -p tcp -e 1060 -c 2 -a 0 -i 59 -k RTR 
- -t 1.349954711 -s 0 -d 1 -p tcp -e 1060 -c 2 -a 0 -i 59 -k RTR
h -t 1.349954711 -s 0 -d 1 -p tcp -e 1060 -c 2 -a 0 -i 59 -k RTR
+ -t 1.349954711 -s 0 -d -1 -p tcp -e 1040 -c 2 -a 0 -i 60 -k AGT 
- -t 1.349954711 -s 0 -d -1 -p tcp -e 1040 -c 2 -a 0 -i 60 -k AGT
h -t 1.349954711 -s 0 -d -1 -p tcp -e 1040 -c 2 -a 0 -i 60 -k AGT
+ -t 1.349954711 -s 0 -d 1 -p tcp -e 1060 -c 2 -a 0 -i 60 -k RTR 
- -t 1.349954711 -s 0 -d 1 -p tcp -e 1060 -c 2 -a 0 -i 60 -k RTR
h -t 1.349954711 -s 0 -d 1 -p tcp -e 1060 -c 2 -a 0 -i 60 -k RTR
r -t 1.352181378 -s 0 -d 0 -p ack -e 60 -c 2 -a 0 -i 58 -k AGT
+ -t 1.352181378 -s 0 -d -1 -p tcp -e 1040 -c 2 -a 0 -i 61 -k AGT 
- -t 1.352181378 -s 0 -d -1 -p tcp -e 1040 -c 2 -a 0 -i 61 -k AGT
h -t 1.352181378 -s 0 -d -1 -p tcp -e 1040 -c 2 -a 0 -i 61 -k AGT
+ -t 1.352181378 -s 0 -d 1 -p tcp -e 1060 -c 2 -a 0 -i 61 -k RTR 
- -t 1.352181378 -s 0 -d 1 -p tcp -e 1060 -c 2 -a 0 -i 61 -k RTR
h -t 1.352181378 -s 0 -d 1 -p tcp -e 1060 -c 2 -a 0 -i 61 -k RTR
r -t 1.362387378 -s 1 -d 1 -p tcp -e 1060 -c 2 -a 0 -i 32 -k AGT
+ -t 1.362387378 -s 1 -d -1 -p ack -e 40 -c 2 -a 0 -i 62 -k AGT 
- -t 1.362387378 -s 1 -d -1 -p ack -e 40 -c 2 -a 0 -i 62 -k AGT
h -t 1.362387378 -s 1 -d -1 -p ack -e 40 -c 2 -a 0 -i 62 -k AGT
+ -t 1.362387378 -s 1 -d 0 -p ack -e 60 -c 2 -a 0 -i 62 -k RTR 
- -t 1.362387378 -s 1 -d 0 -p ack -e 60 -c 2 -a 0 -i 62 -k RTR
h -t 1.362387378 -s 1 -d 0 -p ack -e 60 -c 2 -a 0 -i 62 -k RTR
r -t 1.372414044 -s 1 -d 1 -p tcp -e 1060 -c 2 -a 0 -i 34 -k AGT
+ -t 1.372414044 -s 1 -d -1 -p ack -e 40 -c 2 -a 0 -i 63 -k AGT 
- -t 1.372414044 -s 1 -d -1 -p ack -e 40 -c 2 -a 0 -i 63 -k AGT
h -t 1.372414044 -s 1 -d -1 -p ack -e 40 -c 2 -a 0 -i 63 -k AGT
+ -t 1.372414044 -s 1 -d 0 -p ack -e 60 -c 2 -a 0 -i 63 -k RTR 
- -t 1.372414044 -s 1 -d 0 -p ack -e 60 -c 2 -a 0 -i 63 -k RTR
h -t 1.372414044 -s 1 -d 0 -p ack -e 60 -c 2 -a 0 -i 63 -k RTR
r -t 1.374660044 -s 0 -d 0 -p ack -e 60 -c 2 -a 0 -i 62 -k AGT
+ -t 1.374660044 -s 0 -d -1 -p tcp -e 1040 -c 2 -a 0 -i 64 -k AGT 
- -t 1.374660044 -s 0 -d -1 -p tcp -e 1040 -c 2 -a 0 -i 64 -k AGT
h -t 1.374660044 -s 0 -d -1 -p tcp -e 1040 -c 2 -a 0 -i 64 -k AGT
+ -t 1.374660044 -s 0 -d 1 -p tcp -e 1060 -c 2 -a 0 -i 64 -k RTR 
- -t 1.374660044 -s 0 -d 1 -p tcp -e 1060 -c 2 -a 0 -i 64 -k RTR
h -t 1.374660044 -s 0 -d 1 -p tcp -e 1060 -c 2 -a 0 -i 64 -k RTR
r -t 1.376766711 -s 0 -d 0 -p ack -e 60 -c 2 -a 0 -i 63 -k AGT
+ -t 1.376766711 -s 0 -d -1 -p tcp -e 1040 -c 2 -a 0 -i 65 -k AGT 
- -t 1.376766711 -s 0 -d -1 -p tcp -e 1040 -c 2 -a 0 -i 65 -k AGT
h -t 1.376766711 -s 0 -d -1 -p tcp -e 1040 -c 2 -a 0 -i 65 -k AGT
+ -t 1.376766711 -s 0 -d 1 -p tcp -e 1060 -c 2 -a 0 -i 65 -k RTR 
- -t 1.376766711 -s 0 -d 1 -p tcp -e 1060 -c 2 -a 0 -i 65 -k RTR
h -t 1.376766711 -s 0 -d 1 -p tcp -e 1060 -c 2 -a 0 -i 65 -k RTR
r -t 1.386852711 -s 1 -d 1 -p tcp -e 1060 -c 2 -a 0 -i 35 -k AGT
+ -t 1.386852711 -s 1 -d -1 -p ack -e 40 -c 2 -a 0 -i 66 -k AGT 
- -t 1.386852711 -s 1 -d -1 -p ack -e 40 -c 2 -a 0 -i 66 -k AGT
h -t 1.386852711 -s 1 -d -1 -p ack -e 40 -c 2 -a 0 -i 66 -k AGT
+ -t 1.386852711 -s 1 -d 0 -p ack -e 60 -c 2 -a 0 -i 66 -k RTR 
- -t 1.386852711 -s 1 -d 0 -p ack -e 60 -c 2 -a 0 -i 66 -k RTR
h -t 1.386852711 -s 1 -d 0 -p ack -e 60 -c 2 -a 0 -i 66 -k RTR
r -t 1.396939378 -s 1 -d 1 -p tcp -e 1060 -c 2 -a 0 -i 37 -k AGT
+ -t 1.396939378 -s 1 -d -1 -p ack -e 40 -c 2 -a 0 -i 67 -k AGT 
- -t 1.396939378 -s 1 -d -1 -p ack -e 40 -c 2 -a 0 -i 67 -k AGT
h -t 1.396939378 -s 1 -d -1 -p ack -e 40 -c 2 -a 0 -i 67 -k AGT
+ -t 1.396939378 -s 1 -d 0 -p ack -e 60 -c 2 -a 0 -i 67 -k RTR 
- -t 1.396939378 -s 1 -d 0 -p ack -e 60 -c 2 -a 0 -i 67 -k RTR
h -t 1.396939378 -s 1 -d 0 -p ack -e 60 -c 2 -a 0 -i 67 -k RTR
r -t 1.398945378 -s 0 -d 0 -p ack -e 60 -c 2 -a 0 -i 66 -k AGT
+ -t 1.398945378 -s 0 -d -1 -p tcp -e 1040 -c 2 -a 0 -i 68 -k AGT 
- -t 1.398945378 -s 0 -d -1 -p tcp -e 1040 -c 2 -a 0 -i 68 -k AGT
h -t 1.398945378 -s 0 -d -1 -p tcp -e 1040 -c 2 -a 0 -i 68 -k AGT
+ -t 1.398945378 -s 0 -d 1 -p tcp -e 1060 -c 2 -a 0 -i 68 -k RTR 
- -t 1.398945378 -s 0 -d 1 -p tcp -e 1060 -c 2 -a 0 -i 68 -k RTR
h -t 1.398945378 -s 0 -d 1 -p tcp -e 1060 -c 2 -a 0 -i 68 -k RTR
r -t 1.409011378 -s 1 -d 1 -p tcp -e 1060 -c 2 -a 0 -i 38 -k AGT