s 0.029290548 _1_ RTR  --- 0 message 32 [0 0 0 0] ------- [1:255 -1:255 32 0] 
r 0.030111215 _0_ RTR  --- 0 message 32 [0 ffffffff 1 800] ------- [1:255 -1:255 32 0] 
s 1.000000000 _0_ AGT  --- 1 tcp 40 [0 0 0 0] ------- [0:0 1:0 32 0] [0 0] 0 0
r 1.000000000 _0_ RTR  --- 1 tcp 40 [0 0 0 0] ------- [0:0 1:0 32 0] [0 0] 0 0
s 1.000000000 _0_ RTR  --- 1 tcp 60 [0 0 0 0] ------- [0:0 1:0 32 1] [0 0] 0 0
r 1.004995667 _1_ AGT  --- 1 tcp 60 [13a 1 0 800] ------- [0:0 1:0 32 1] [0 0] 1 0
s 1.004995667 _1_ AGT  --- 2 ack 40 [0 0 0 0] ------- [1:0 0:0 32 0] [0 0] 0 0
r 1.004995667 _1_ RTR  --- 2 ack 40 [0 0 0 0] ------- [1:0 0:0 32 0] [0 0] 0 0
s 1.112189378 _0_ RTR  --- 3 message 32 [0 0 0 0] ------- [0:255 -1:255 32 0] 
r 1.113370044 _1_ RTR  --- 3 message 32 [0 ffffffff 0 800] ------- [0:255 -1:255 32 0] 
s 1.113370044 _1_ RTR  --- 2 ack 80 [0 0 0 0] ------- [1:0 0:0 32 0] [0 0] 0 0
r 1.115412044 _0_ AGT  --- 2 ack 80 [13a 0 1 800] ------- [1:0 0:0 32 0] [0 0] 1 0
s 1.115412044 _0_ AGT  --- 4 tcp 1040 [0 0 0 0] ------- [0:0 1:0 32 0] [1 0] 0 0
r 1.115412044 _0_ RTR  --- 4 tcp 1040 [0 0 0 0] ------- [0:0 1:0 32 0] [1 0] 0 0
s 1.115412044 _0_ RTR  --- 4 tcp 1060 [0 0 0 0] ------- [0:0 1:0 32 1] [1 0] 0 0
s 1.115412044 _0_ AGT  --- 5 tcp 1040 [0 0 0 0] ------- [0:0 1:0 32 0] [2 0] 0 0
r 1.115412044 _0_ RTR  --- 5 tcp 1040 [0 0 0 0] ------- [0:0 1:0 32 0] [2 0] 0 0
s 1.115412044 _0_ RTR  --- 5 tcp 1060 [0 0 0 0] ------- [0:0 1:0 32 1] [2 0] 0 0
r 1.125438044 _1_ AGT  --- 4 tcp 1060 [13a 1 0 800] ------- [0:0 1:0 32 1] [1 0] 1 0
s 1.125438044 _1_ AGT  --- 6 ack 40 [0 0 0 0] ------- [1:0 0:0 32 0] [1 0] 0 0
r 1.125438044 _1_ RTR  --- 6 ack 40 [0 0 0 0] ------- [1:0 0:0 32 0] [1 0] 0 0
s 1.125438044 _1_ RTR  --- 6 ack 60 [0 0 0 0] ------- [1:0 0:0 32 0] [1 0] 0 0
r 1.135764711 _1_ AGT  --- 5 tcp 1060 [13a 1 0 800] ------- [0:0 1:0 32 1] [2 0] 1 0
s 1.135764711 _1_ AGT  --- 7 ack 40 [0 0 0 0] ------- [1:0 0:0 32 0] [2 0] 0 0
r 1.135764711 _1_ RTR  --- 7 ack 40 [0 0 0 0] ------- [1:0 0:0 32 0] [2 0] 0 0
s 1.135764711 _1_ RTR  --- 7 ack 60 [0 0 0 0] ------- [1:0 0:0 32 0] [2 0] 0 0
r 1.137870711 _0_ AGT  --- 6 ack 60 [13a 0 1 800] ------- [1:0 0:0 32 0] [1 0] 1 0
s 1.137870711 _0_ AGT  --- 8 tcp 1040 [0 0 0 0] ------- [0:0 1:0 32 0] [3 0] 0 0
r 1.137870711 _0_ RTR  --- 8 tcp 1040 [0 0 0 0] ------- [0:0 1:0 32 0] [3 0] 0 0
s 1.137870711 _0_ RTR  --- 8 tcp 1060 [0 0 0 0] ------- [0:0 1:0 32 1] [3 0] 0 0
s 1.137870711 _0_ AGT  --- 9 tcp 1040 [0 0 0 0] ------- [0:0 1:0 32 0] [4 0] 0 0
r 1.137870711 _0_ RTR  --- 9 tcp 1040 [0 0 0 0] ------- [0:0 1:0 32 0] [4 0] 0 0
s 1.137870711 _0_ RTR  --- 9 tcp 1060 [0 0 0 0] ------- [0:0 1:0 32 1] [4 0] 0 0
r 1.140057378 _0_ AGT  --- 7 ack 60 [13a 0 1 800] ------- [1:0 0:0 32 0] [2 0] 1 0
s 1.140057378 _0_ AGT  --- 10 tcp 1040 [0 0 0 0] ------- [0:0 1:0 32 0] [5 0] 0 0
r 1.140057378 _0_ RTR  --- 10 tcp 1040 [0 0 0 0] ------- [0:0 1:0 32 0] [5 0] 0 0
s 1.140057378 _0_ RTR  --- 10 tcp 1060 [0 0 0 0] ------- [0:0 1:0 32 1] [5 0] 0 0
s 1.140057378 _0_ AGT  --- 11 tcp 1040 [0 0 0 0] ------- [0:0 1:0 32 0] [6 0] 0 0
r 1.140057378 _0_ RTR  --- 11 tcp 1040 [0 0 0 0] ------- [0:0 1:0 32 0] [6 0] 0 0
s 1.140057378 _0_ RTR  --- 11 tcp 1060 [0 0 0 0] ------- [0:0 1:0 32 1] [6 0] 0 0
r 1.150063378 _1_ AGT  --- 8 tcp 1060 [13a 1 0 800] ------- [0:0 1:0 32 1] [3 0] 1 0
s 1.150063378 _1_ AGT  --- 12 ack 40 [0 0 0 0] ------- [1:0 0:0 32 0] [3 0] 0 0
r 1.150063378 _1_ RTR  --- 12 ack 40 [0 0 0 0] ------- [1:0 0:0 32 0] [3 0] 0 0
s 1.150063378 _1_ RTR  --- 12 ack 60 [0 0 0 0] ------- [1:0 0:0 32 0] [3 0] 0 0
r 1.160070044 _1_ AGT  --- 9 tcp 1060 [13a 1 0 800] ------- [0:0 1:0 32 1] [4 0] 1 0
s 1.160070044 _1_ AGT  --- 13 ack 40 [0 0 0 0] ------- [1:0 0:0 32 0] [4 0] 0 0
r 1.160070044 _1_ RTR  --- 13 ack 40 [0 0 0 0] ------- [1:0 0:0 32 0] [4 0] 0 0
s 1.160070044 _1_ RTR  --- 13 ack 60 [0 0 0 0] ------- [1:0 0:0 32 0] [4 0] 0 0
r 1.162256044 _0_ AGT  --- 12 ack 60 [13a 0 1 800] ------- [1:0 0:0 32 0] [3 0] 1 0
s 1.162256044 _0_ AGT  --- 14 tcp 1040 [0 0 0 0] ------- [0:0 1:0 32 0] [7 0] 0 0
r 1.162256044 _0_ RTR  --- 14 tcp 1040 [0 0 0 0] ------- [0:0 1:0 32 0] [7 0] 0 0
s 1.162256044 _0_ RTR  --- 14 tcp 1060 [0 0 0 0] ------- [0:0 1:0 32 1] [7 0] 0 0
s 1.162256044 _0_ AGT  --- 15 tcp 1040 [0 0 0 0] ------- [0:0 1:0 32 0] [8 0] 0 0
r 1.162256044 _0_ RTR  --- 15 tcp 1040 [0 0 0 0] ------- [0:0 1:0 32 0] [8 0] 0 0
s 1.162256044 _0_ RTR  --- 15 tcp 1060 [0 0 0 0] ------- [0:0 1:0 32 1] [8 0] 0 0
r 1.172302044 _1_ AGT  --- 10 tcp 1060 [13a 1 0 800] ------- [0:0 1:0 32 1] [5 0] 1 0
s 1.172302044 _1_ AGT  --- 16 ack 40 [0 0 0 0] ------- [1:0 0:0 32 0] [5 0] 0 0
r 1.172302044 _1_ RTR  --- 16 ack 40 [0 0 0 0] ------- [1:0 0:0 32 0] [5 0] 0 0
s 1.172302044 _1_ RTR  --- 16 ack 60 [0 0 0 0] ------- [1:0 0:0 32 0] [5 0] 0 0
r 1.182468711 _1_ AGT  --- 11 tcp 1060 [13a 1 0 800] ------- [0:0 1:0 32 1] [6 0] 1 0
s 1.182468711 _1_ AGT  --- 17 ack 40 [0 0 0 0] ------- [1:0 0:0 32 0] [6 0] 0 0
r 1.182468711 _1_ RTR  --- 17 ack 40 [0 0 0 0] ------- [1:0 0:0 32 0] [6 0] 0 0
s 1.182468711 _1_ RTR  --- 17 ack 60 [0 0 0 0] ------- [1:0 0:0 32 0] [6 0] 0 0
r 1.184674711 _0_ AGT  --- 13 ack 60 [13a 0 1 800] ------- [1:0 0:0 32 0] [4 0] 1 0
s 1.184674711 _0_ AGT  --- 18 tcp 1040 [0 0 0 0] ------- [0:0 1:0 32 0] [9 0] 0 0
r 1.184674711 _0_ RTR  --- 18 tcp 1040 [0 0 0 0] ------- [0:0 1:0 32 0] [9 0] 0 0
s 1.184674711 _0_ RTR  --- 18 tcp 1060 [0 0 0 0] ------- [0:0 1:0 32 1] [9 0] 0 0
s 1.184674711 _0_ AGT  --- 19 tcp 1040 [0 0 0 0] ------- [0:0 1:0 32 0] [10 0] 0 0
r 1.184674711 _0_ RTR  --- 19 tcp 1040 [0 0 0 0] ------- [0:0 1:0 32 0] [10 0] 0 0
s 1.184674711 _0_ RTR  --- 19 tcp 1060 [0 0 0 0] ------- [0:0 1:0 32 1] [10 0] 0 0
r 1.195040711 _1_ AGT  --- 14 tcp 1060 [13a 1 0 800] ------- [0:0 1:0 32 1] [7 0] 1 0
s 1.195040711 _1_ AGT  --- 20 ack 40 [0 0 0 0] ------- [1:0 0:0 32 0] [7 0] 0 0
r 1.195040711 _1_ RTR  --- 20 ack 40 [0 0 0 0] ------- [1:0 0:0 32 0] [7 0] 0 0
s 1.195040711 _1_ RTR  --- 20 ack 60 [0 0 0 0] ------- [1:0 0:0 32 0] [7 0] 0 0
r 1.197066711 _0_ AGT  --- 16 ack 60 [13a 0 1 800] ------- [1:0 0:0 32 0] [5 0] 1 0
s 1.197066711 _0_ AGT  --- 21 tcp 1040 [0 0 0 0] ------- [0:0 1:0 32 0] [11 0] 0 0
r 1.197066711 _0_ RTR  --- 21 tcp 1040 [0 0 0 0] ------- [0:0 1:0 32 0] [11 0] 0 0
s 1.197066711 _0_ RTR  --- 21 tcp 1060 [0 0 0 0] ------- [0:0 1:0 32 1] [11 0] 0 0
s 1.197066711 _0_ AGT  --- 22 tcp 1040 [0 0 0 0] ------- [0:0 1:0 32 0] [12 0] 0 0
r 1.197066711 _0_ RTR  --- 22 tcp 1040 [0 0 0 0] ------- [0:0 1:0 32 0] [12 0] 0 0
s 1.197066711 _0_ RTR  --- 22 tcp 1060 [0 0 0 0] ------- [0:0 1:0 32 1] [12 0] 0 0
r 1.199413378 _0_ AGT  --- 17 ack 60 [13a 0 1 800] ------- [1:0 0:0 32 0] [6 0] 1 0
s 1.199413378 _0_ AGT  --- 23 tcp 1040 [0 0 0 0] ------- [0:0 1:0 32 0] [13 0] 0 0
r 1.199413378 _0_ RTR  --- 23 tcp 1040 [0 0 0 0] ------- [0:0 1:0 32 0] [13 0] 0 0
s 1.199413378 _0_ RTR  --- 23 tcp 1060 [0 0 0 0] ------- [0:0 1:0 32 1] [13 0] 0 0
s 1.199413378 _0_ AGT  --- 24 tcp 1040 [0 0 0 0] ------- [0:0 1:0 32 0] [14 0] 0 0
r 1.199413378 _0_ RTR  --- 24 tcp 1040 [0 0 0 0] ------- [0:0 1:0 32 0] [14 0] 0 0
s 1.199413378 _0_ RTR  --- 24 tcp 1060 [0 0 0 0] ------- [0:0 1:0 32 1] [14 0] 0 0
r 1.201440044 _0_ AGT  --- 20 ack 60 [13a 0 1 800] ------- [1:0 0:0 32 0] [7 0] 1 0
s 1.201440044 _0_ AGT  --- 25 tcp 1040 [0 0 0 0] ------- [0:0 1:0 32 0] [15 0] 0 0
r 1.201440044 _0_ RTR  --- 25 tcp 1040 [0 0 0 0] ------- [0:0 1:0 32 0] [15 0] 0 0
s 1.201440044 _0_ RTR  --- 25 tcp 1060 [0 0 0 0] ------- [0:0 1:0 32 1] [15 0] 0 0
s 1.201440044 _0_ AGT  --- 26 tcp 1040 [0 0 0 0] ------- [0:0 1:0 32 0] [16 0] 0 0
r 1.201440044 _0_ RTR  --- 26 tcp 1040 [0 0 0 0] ------- [0:0 1:0 32 0] [16 0] 0 0
s 1.201440044 _0_ RTR  --- 26 tcp 1060 [0 0 0 0] ------- [0:0 1:0 32 1] [16 0] 0 0
r 1.211546044 _1_ AGT  --- 15 tcp 1060 [13a 1 0 800] ------- [0:0 1:0 32 1] [8 0] 1 0
s 1.211546044 _1_ AGT  --- 27 ack 40 [0 0 0 0] ------- [1:0 0:0 32 0] [8 0] 0 0
r 1.211546044 _1_ RTR  --- 27 ack 40 [0 0 0 0] ------- [1:0 0:0 32 0] [8 0] 0 0
s 1.211546044 _1_ RTR  --- 27 ack 60 [0 0 0 0] ------- [1:0 0:0 32 0] [8 0] 0 0
r 1.213732044 _0_ AGT  --- 27 ack 60 [13a 0 1 800] ------- [1:0 0:0 32 0] [8 0] 1 0
s 1.213732044 _0_ AGT  --- 28 tcp 1040 [0 0 0 0] ------- [0:0 1:0 32 0] [17 0] 0 0
r 1.213732044 _0_ RTR  --- 28 tcp 1040 [0 0 0 0] ------- [0:0 1:0 32 0] [17 0] 0 0
s 1.213732044 _0_ RTR  --- 28 tcp 1060 [0 0 0 0] ------- [0:0 1:0 32 1] [17 0] 0 0
s 1.213732044 _0_ AGT  --- 29 tcp 1040 [0 0 0 0] ------- [0:0 1:0 32 0] [18 0] 0 0
r 1.213732044 _0_ RTR  --- 29 tcp 1040 [0 0 0 0] ------- [0:0 1:0 32 0] [18 0] 0 0
s 1.213732044 _0_ RTR  --- 29 tcp 1060 [0 0 0 0] ------- [0:0 1:0 32 1] [18 0] 0 0
r 1.223898044 _1_ AGT  --- 18 tcp 1060 [13a 1 0 800] ------- [0:0 1:0 32 1] [9 0] 1 0
s 1.223898044 _1_ AGT  --- 30 ack 40 [0 0 0 0] ------- [1:0 0:0 32 0] [9 0] 0 0
r 1.223898044 _1_ RTR  --- 30 ack 40 [0 0 0 0] ------- [1:0 0:0 32 0] [9 0] 0 0
s 1.223898044 _1_ RTR  --- 30 ack 60 [0 0 0 0] ------- [1:0 0:0 32 0] [9 0] 0 0
r 1.225964044 _0_ AGT  --- 30 ack 60 [13a 0 1 800] ------- [1:0 0:0 32 0] [9 0] 1 0
s 1.225964044 _0_ AGT  --- 31 tcp 1040 [0 0 0 0] ------- [0:0 1:0 32 0] [19 0] 0 0
r 1.225964044 _0_ RTR  --- 31 tcp 1040 [0 0 0 0] ------- [0:0 1:0 32 0] [19 0] 0 0
s 1.225964044 _0_ RTR  --- 31 tcp 1060 [0 0 0 0] ------- [0:0 1:0 32 1] [19 0] 0 0
s 1.225964044 _0_ AGT  --- 32 tcp 1040 [0 0 0 0] ------- [0:0 1:0 32 0] [20 0] 0 0
r 1.225964044 _0_ RTR  --- 32 tcp 1040 [0 0 0 0] ------- [0:0 1:0 32 0] [20 0] 0 0
s 1.225964044 _0_ RTR  --- 32 tcp 1060 [0 0 0 0] ------- [0:0 1:0 32 1] [20 0] 0 0
r 1.236170044 _1_ AGT  --- 19 tcp 1060 [13a 1 0 800] ------- [0:0 1:0 32 1] [10 0] 1 0
s 1.236170044 _1_ AGT  --- 33 ack 40 [0 0 0 0] ------- [1:0 0:0 32 0] [10 0] 0 0
r 1.236170044 _1_ RTR  --- 33 ack 40 [0 0 0 0] ------- [1:0 0:0 32 0] [10 0] 0 0
s 1.236170044 _1_ RTR  --- 33 ack 60 [0 0 0 0] ------- [1:0 0:0 32 0] [10 0] 0 0
r 1.238256044 _0_ AGT  --- 33 ack 60 [13a 0 1 800] ------- [1:0 0:0 32 0] [10 0] 1 0
s 1.238256044 _0_ AGT  --- 34 tcp 1040 [0 0 0 0] ------- [0:0 1:0 32 0] [21 0] 0 0
r 1.238256044 _0_ RTR  --- 34 tcp 1040 [0 0 0 0] ------- [0:0 1:0 32 0] [21 0] 0 0
s 1.238256044 _0_ RTR  --- 34 tcp 1060 [0 0 0 0] ------- [0:0 1:0 32 1] [21 0] 0 0
s 1.238256044 _0_ AGT  --- 35 tcp 1040 [0 0 0 0] ------- [0:0 1:0 32 0] [22 0] 0 0
r 1.238256044 _0_ RTR  --- 35 tcp 1040 [0 0 0 0] ------- [0:0 1:0 32 0] [22 0] 0 0
s 1.238256044 _0_ RTR  --- 35 tcp 1060 [0 0 0 0] ------- [0:0 1:0 32 1] [22 0] 0 0
r 1.248682044 _1_ AGT  --- 21 tcp 1060 [13a 1 0 800] ------- [0:0 1:0 32 1] [11 0] 1 0
s 1.248682044 _1_ AGT  --- 36 ack 40 [0 0 0 0] ------- [1:0 0:0 32 0] [11 0] 0 0
r 1.248682044 _1_ RTR  --- 36 ack 40 [0 0 0 0] ------- [1:0 0:0 32 0] [11 0] 0 0
s 1.248682044 _1_ RTR  --- 36 ack 60 [0 0 0 0] ------- [1:0 0:0 32 0] [11 0] 0 0
r 1.250868044 _0_ AGT  --- 36 ack 60 [13a 0 1 800] ------- [1:0 0:0 32 0] [11 0] 1 0
s 1.250868044 _0_ AGT  --- 37 tcp 1040 [0 0 0 0] ------- [0:0 1:0 32 0] [23 0] 0 0
r 1.250868044 _0_ RTR  --- 37 tcp 1040 [0 0 0 0] ------- [0:0 1:0 32 0] [23 0] 0 0
s 1.250868044 _0_ RTR  --- 37 tcp 1060 [0 0 0 0] ------- [0:0 1:0 32 1] [23 0] 0 0
s 1.250868044 _0_ AGT  --- 38 tcp 1040 [0 0 0 0] ------- [0:0 1:0 32 0] [24 0] 0 0
r 1.250868044 _0_ RTR  --- 38 tcp 1040 [0 0 0 0] ------- [0:0 1:0 32 0] [24 0] 0 0
s 1.250868044 _0_ RTR  --- 38 tcp 1060 [0 0 0 0] ------- [0:0 1:0 32 1] [24 0] 0 0
r 1.261254044 _1_ AGT  --- 22 tcp 1060 [13a 1 0 800] ------- [0:0 1:0 32 1] [12 0] 1 0
s 1.261254044 _1_ AGT  --- 39 ack 40 [0 0 0 0] ------- [1:0 0:0 32 0] [12 0] 0 0
r 1.261254044 _1_ RTR  --- 39 ack 40 [0 0 0 0] ------- [1:0 0:0 32 0] [12 0] 0 0
s 1.261254044 _1_ RTR  --- 39 ack 60 [0 0 0 0] ------- [1:0 0:0 32 0] [12 0] 0 0
r 1.263360044 _0_ AGT  --- 39 ack 60 [13a 0 1 800] ------- [1:0 0:0 32 0] [12 0] 1 0
s 1.263360044 _0_ AGT  --- 40 tcp 1040 [0 0 0 0] ------- [0:0 1:0 32 0] [25 0] 0 0
r 1.263360044 _0_ RTR  --- 40 tcp 1040 [0 0 0 0] ------- [0:0 1:0 32 0] [25 0] 0 0
s 1.263360044 _0_ RTR  --- 40 tcp 1060 [0 0 0 0] ------- [0:0 1:0 32 1] [25 0] 0 0
s 1.263360044 _0_ AGT  --- 41 tcp 1040 [0 0 0 0] ------- [0:0 1:0 32 0] [26 0] 0 0
r 1.263360044 _0_ RTR  --- 41 tcp 1040 [0 0 0 0] ------- [0:0 1:0 32 0] [26 0] 0 0
s 1.263360044 _0_ RTR  --- 41 tcp 1060 [0 0 0 0] ------- [0:0 1:0 32 1] [26 0] 0 0
r 1.273586044 _1_ AGT  --- 23 tcp 1060 [13a 1 0 800] ------- [0:0 1:0 32 1] [13 0] 1 0
s 1.273586044 _1_ AGT  --- 42 ack 40 [0 0 0 0] ------- [1:0 0:0 32 0] [13 0] 0 0
r 1.273586044 _1_ RTR  --- 42 ack 40 [0 0 0 0] ------- [1:0 0:0 32 0] [13 0] 0 0
s 1.273586044 _1_ RTR  --- 42 ack 60 [0 0 0 0] ------- [1:0 0:0 32 0] [13 0] 0 0
r 1.285098711 _1_ AGT  --- 24 tcp 1060 [13a 1 0 800] ------- [0:0 1:0 32 1] [14 0] 1 0
s 1.285098711 _1_ AGT  --- 43 ack 40 [0 0 0 0] ------- [1:0 0:0 32 0] [14 0] 0 0
r 1.285098711 _1_ RTR  --- 43 ack 40 [0 0 0 0] ------- [1:0 0:0 32 0] [14 0] 0 0
s 1.285098711 _1_ RTR  --- 43 ack 60 [0 0 0 0] ------- [1:0 0:0 32 0] [14 0] 0 0
r 1.288372044 _0_ AGT  --- 42 ack 60 [13a 0 1 800] ------- [1:0 0:0 32 0] [13 0] 1 0
s 1.288372044 _0_ AGT  --- 44 tcp 1040 [0 0 0 0] ------- [0:0 1:0 32 0] [27 0] 0 0
r 1.288372044 _0_ RTR  --- 44 tcp 1040 [0 0 0 0] ------- [0:0 1:0 32 0] [27 0] 0 0
s 1.288372044 _0_ RTR  --- 44 tcp 1060 [0 0 0 0] ------- [0:0 1:0 32 1] [27 0] 0 0
s 1.288372044 _0_ AGT  --- 45 tcp 1040 [0 0 0 0] ------- [0:0 1:0 32 0] [28 0] 0 0
r 1.288372044 _0_ RTR  --- 45 tcp 1040 [0 0 0 0] ------- [0:0 1:0 32 0] [28 0] 0 0
s 1.288372044 _0_ RTR  --- 45 tcp 1060 [0 0 0 0] ------- [0:0 1:0 32 1] [28 0] 0 0
r 1.290678711 _0_ AGT  --- 43 ack 60 [13a 0 1 800] ------- [1:0 0:0 32 0] [14 0] 1 0
s 1.290678711 _0_ AGT  --- 46 tcp 1040 [0 0 0 0] ------- [0:0 1:0 32 0] [29 0] 0 0
r 1.290678711 _0_ RTR  --- 46 tcp 1040 [0 0 0 0] ------- [0:0 1:0 32 0] [29 0] 0 0
s 1.290678711 _0_ RTR  --- 46 tcp 1060 [0 0 0 0] ------- [0:0 1:0 32 1] [29 0] 0 0
s 1.290678711 _0_ AGT  --- 47 tcp 1040 [0 0 0 0] ------- [0:0 1:0 32 0] [30 0] 0 0
r 1.290678711 _0_ RTR  --- 47 tcp 1040 [0 0 0 0] ------- [0:0 1:0 32 0] [30 0] 0 0
s 1.290678711 _0_ RTR  --- 47 tcp 1060 [0 0 0 0] ------- [0:0 1:0 32 1] [30 0] 0 0
r 1.301284711 _1_ AGT  --- 25 tcp 1060 [13a 1 0 800] ------- [0:0 1:0 32 1] [15 0] 1 0
s 1.301284711 _1_ AGT  --- 48 ack 40 [0 0 0 0] ------- [1:0 0:0 32 0] [15 0] 0 0
r 1.301284711 _1_ RTR  --- 48 ack 40 [0 0 0 0] ------- [1:0 0:0 32 0] [15 0] 0 0
s 1.301284711 _1_ RTR  --- 48 ack 60 [0 0 0 0] ------- [1:0 0:0 32 0] [15 0] 0 0
r 1.311351378 _1_ AGT  --- 26 tcp 1060 [13a 1 0 800] ------- [0:0 1:0 32 1] [16 0] 1 0
s 1.311351378 _1_ AGT  --- 49 ack 40 [0 0 0 0] ------- [1:0 0:0 32 0] [16 0] 0 0
r 1.311351378 _1_ RTR  --- 49 ack 40 [0 0 0 0] ------- [1:0 0:0 32 0] [16 0] 0 0
s 1.311351378 _1_ RTR  --- 49 ack 60 [0 0 0 0] ------- [1:0 0:0 32 0] [16 0] 0 0
r 1.313477378 _0_ AGT  --- 48 ack 60 [13a 0 1 800] ------- [1:0 0:0 32 0] [15 0] 1 0
s 1.313477378 _0_ AGT  --- 50 tcp 1040 [0 0 0 0] ------- [0:0 1:0 32 0] [31 0] 0 0
r 1.313477378 _0_ RTR  --- 50 tcp 1040 [0 0 0 0] ------- [0:0 1:0 32 0] [31 0] 0 0
s 1.313477378 _0_ RTR  --- 50 tcp 1060 [0 0 0 0] ------- [0:0 1:0 32 1] [31 0] 0 0
s 1.313477378 _0_ AGT  --- 51 tcp 1040 [0 0 0 0] ------- [0:0 1:0 32 0] [32 0] 0 0
r 1.313477378 _0_ RTR  --- 51 tcp 1040 [0 0 0 0] ------- [0:0 1:0 32 0] [32 0] 0 0
s 1.313477378 _0_ RTR  --- 51 tcp 1060 [0 0 0 0] ------- [0:0 1:0 32 1] [32 0] 0 0
r 1.315464044 _0_ AGT  --- 49 ack 60 [13a 0 1 800] ------- [1:0 0:0 32 0] [16 0] 1 0
s 1.315464044 _0_ AGT  --- 52 tcp 1040 [0 0 0 0] ------- [0:0 1:0 32 0] [33 0] 0 0
r 1.315464044 _0_ RTR  --- 52 tcp 1040 [0 0 0 0] ------- [0:0 1:0 32 0] [33 0] 0 0
s 1.315464044 _0_ RTR  --- 52 tcp 1060 [0 0 0 0] ------- [0:0 1:0 32 1] [33 0] 0 0
s 1.315464044 _0_ AGT  --- 53 tcp 1040 [0 0 0 0] ------- [0:0 1:0 32 0] [34 0] 0 0
r 1.315464044 _0_ RTR  --- 53 tcp 1040 [0 0 0 0] ------- [0:0 1:0 32 0] [34 0] 0 0
s 1.315464044 _0_ RTR  --- 53 tcp 1060 [0 0 0 0] ------- [0:0 1:0 32 1] [34 0] 0 0
r 1.325630044 _1_ AGT  --- 28 tcp 1060 [13a 1 0 800] ------- [0:0 1:0 32 1] [17 0] 1 0
s 1.325630044 _1_ AGT  --- 54 ack 40 [0 0 0 0] ------- [1:0 0:0 32 0] [17 0] 0 0
r 1.325630044 _1_ RTR  --- 54 ack 40 [0 0 0 0] ------- [1:0 0:0 32 0] [17 0] 0 0
s 1.325630044 _1_ RTR  --- 54 ack 60 [0 0 0 0] ------- [1:0 0:0 32 0] [17 0] 0 0
r 1.327696044 _0_ AGT  --- 54 ack 60 [13a 0 1 800] ------- [1:0 0:0 32 0] [17 0] 1 0
s 1.327696044 _0_ AGT  --- 55 tcp 1040 [0 0 0 0] ------- [0:0 1:0 32 0] [35 0] 0 0
r 1.327696044 _0_ RTR  --- 55 tcp 1040 [0 0 0 0] ------- [0:0 1:0 32 0] [35 0] 0 0
s 1.327696044 _0_ RTR  --- 55 tcp 1060 [0 0 0 0] ------- [0:0 1:0 32 1] [35 0] 0 0
s 1.327696044 _0_ AGT  --- 56 tcp 1040 [0 0 0 0] ------- [0:0 1:0 32 0] [36 0] 0 0
r 1.327696044 _0_ RTR  --- 56 tcp 1040 [0 0 0 0] ------- [0:0 1:0 32 0] [36 0] 0 0
s 1.327696044 _0_ RTR  --- 56 tcp 1060 [0 0 0 0] ------- [0:0 1:0 32 1] [36 0] 0 0
r 1.337922044 _1_ AGT  --- 29 tcp 1060 [13a 1 0 800] ------- [0:0 1:0 32 1] [18 0] 1 0
s 1.337922044 _1_ AGT  --- 57 ack 40 [0 0 0 0] ------- [1:0 0:0 32 0] [18 0] 0 0
r 1.337922044 _1_ RTR  --- 57 ack 40 [0 0 0 0] ------- [1:0 0:0 32 0] [18 0] 0 0
s 1.337922044 _1_ RTR  --- 57 ack 60 [0 0 0 0] ------- [1:0 0:0 32 0] [18 0] 0 0
r 1.347928711 _1_ AGT  --- 31 tcp 1060 [13a 1 0 800] ------- [0:0 1:0 32 1] [19 0] 1 0
s 1.347928711 _1_ AGT  --- 58 ack 40 [0 0 0 0] ------- [1:0 0:0 32 0] [19 0] 0 0
r 1.347928711 _1_ RTR  --- 58 ack 40 [0 0 0 0] ------- [1:0 0:0 32 0] [19 0] 0 0
s 1.347928711 _1_ RTR  --- 58 ack 60 [0 0 0 0] ------- [1:0 0:0 32 0] [19 0] 0 0
r 1.349954711 _0_ AGT  --- 57 ack 60 [13a 0 1 800] ------- [1:0 0:0 32 0] [18 0] 1 0
s 1.349954711 _0_ AGT  --- 59 tcp 1040 [0 0 0 0] ------- [0:0 1:0 32 0] [37 0] 0 0
r 1.349954711 _0_ RTR  --- 59 tcp 1040 [0 0 0 0] ------- [0:0 1:0 32 0] [37 0] 0 0
s 1.349954711 _0_ RTR  --- 59 tcp 1060 [0 0 0 0] ------- [0:0 1:0 32 1] [37 0] 0 0
s 1.349954711 _0_ AGT  --- 60 tcp 1040 [0 0 0 0] ------- [0:0 1:0 32 0] [38 0] 0 0
r 1.349954711 _0_ RTR  --- 60 tcp 1040 [0 0 0 0] ------- [0:0 1:0 32 0] [38 0] 0 0
s 1.349954711 _0_ RTR  --- 60 tcp 1060 [0 0 0 0] ------- [0:0 1:0 32 1] [38 0] 0 0
r 1.352181378 _0_ AGT  --- 58 ack 60 [13a 0 1 800] ------- [1:0 0:0 32 0] [19 0] 1 0
s 1.352181378 _0_ AGT  --- 61 tcp 1040 [0 0 0 0] ------- [0:0 1:0 32 0] [39 0] 0 0
r 1.352181378 _0_ RTR  --- 61 tcp 1040 [0 0 0 0] ------- [0:0 1:0 32 0] [39 0] 0 0
s 1.352181378 _0_ RTR  --- 61 tcp 1060 [0 0 0 0] ------- [0:0 1:0 32 1] [39 0] 0 0
r 1.362387378 _1_ AGT  --- 32 tcp 1060 [13a 1 0 800] ------- [0:0 1:0 32 1] [20 0] 1 0
s 1.362387378 _1_ AGT  --- 62 ack 40 [0 0 0 0] ------- [1:0 0:0 32 0] [20 0] 0 0
r 1.362387378 _1_ RTR  --- 62 ack 40 [0 0 0 0] ------- [1:0 0:0 32 0] [20 0] 0 0
s 1.362387378 _1_ RTR  --- 62 ack 60 [0 0 0 0] ------- [1:0 0:0 32 0] [20 0] 0 0
r 1.372414044 _1_ AGT  --- 34 tcp 1060 [13a 1 0 800] ------- [0:0 1:0 32 1] [21 0] 1 0
s 1.372414044 _1_ AGT  --- 63 ack 40 [0 0 0 0] ------- [1:0 0:0 32 0] [21 0] 0 0
r 1.372414044 _1_ RTR  --- 63 ack 40 [0 0 0 0] ------- [1:0 0:0 32 0] [21 0] 0 0
s 1.372414044 _1_ RTR  --- 63 ack 60 [0 0 0 0] ------- [1:0 0:0 32 0] [21 0] 0 0
r 1.374660044 _0_ AGT  --- 62 ack 60 [13a 0 1 800] ------- [1:0 0:0 32 0] [20 0] 1 0
s 1.374660044 _0_ AGT  --- 64 tcp 1040 [0 0 0 0] ------- [0:0 1:0 32 0] [40 0] 0 0
r 1.374660044 _0_ RTR  --- 64 tcp 1040 [0 0 0 0] ------- [0:0 1:0 32 0] [40 0] 0 0
s 1.374660044 _0_ RTR  --- 64 tcp 1060 [0 0 0 0] ------- [0:0 1:0 32 1] [40 0] 0 0
r 1.376766711 _0_ AGT  --- 63 ack 60 [13a 0 1 800] ------- [1:0 0:0 32 0] [21 0] 1 0
s 1.376766711 _0_ AGT  --- 65 tcp 1040 [0 0 0 0] ------- [0:0 1:0 32 0] [41 0] 0 0
r 1.376766711 _0_ RTR  --- 65 tcp 1040 [0 0 0 0] ------- [0:0 1:0 32 0] [41 0] 0 0
s 1.376766711 _0_ RTR  --- 65 tcp 1060 [0 0 0 0] ------- [0:0 1:0 32 1] [41 0] 0 0
r 1.386852711 _1_ AGT  --- 35 tcp 1060 [13a 1 0 800] ------- [0:0 1:0 32 1] [22 0] 1 0
s 1.386852711 _1_ AGT  --- 66 ack 40 [0 0 0 0] ------- [1:0 0:0 32 0] [22 0] 0 0
r 1.386852711 _1_ RTR  --- 66 ack 40 [0 0 0 0] ------- [1:0 0:0 32 0] [22 0] 0 0
s 1.386852711 _1_ RTR  --- 66 ack 60 [0 0 0 0] ------- [1:0 0:0 32 0] [22 0] 0 0
r 1.396939378 _1_ AGT  --- 37 tcp 1060 [13a 1 0 800] ------- [0:0 1:0 32 1] [23 0] 1 0
s 1.396939378 _1_ AGT  --- 67 ack 40 [0 0 0 0] ------- [1:0 0:0 32 0] [23 0] 0 0
r 1.396939378 _1_ RTR  --- 67 ack 40 [0 0 0 0] ------- [1:0 0:0 32 0] [23 0] 0 0
s 1.396939378 _1_ RTR  --- 67 ack 60 [0 0 0 0] ------- [1:0 0:0 32 0] [23 0] 0 0
r 1.398945378 _0_ AGT  --- 66 ack 60 [13a 0 1 800] ------- [1:0 0:0 32 0] [22 0] 1 0
s 1.398945378 _0_ AGT  --- 68 tcp 1040 [0 0 0 0] ------- [0:0 1:0 32 0] [42 0] 0 0
r 1.398945378 _0_ RTR  --- 68 tcp 1040 [0 0 0 0] ------- [0:0 1:0 32 0] [42 0] 0 0
s 1.398945378 _0_ RTR  --- 68 tcp 1060 [0 0 0 0] ------- [0:0 1:0 32 1] [42 0] 0 0
r 1.409011378 _1_ AGT  --- 38 tcp 1060 [13a 1 0 800] ------- [0:0 1:0 32 1] [24 0] 1 0
s 1.409011378 _1_ AGT  --- 69 ack 40 [0 0 0 0] ------- [1:0 0:0 32 0] [24 0] 0 0
r 1.409011378 _1_ RTR  --- 69 ack 40 [0 0 0 0] ------- [1:0 0:0 32 0] [24 0] 0 0
s 1.409011378 _1_ RTR  --- 69 ack 60 [0 0 0 0] ------- [1:0 0:0 32 0] [24 0] 0 0
r 1.420544044 _1_ AGT  --- 40 tcp 1060 [13a 1 0 800] ------- [0:0 1:0 32 1] [25 0] 1 0
s 1.420544044 _1_ AGT  --- 70 ack 40 [0 0 0 0] ------- [1:0 0:0 32 0] [25 0] 0 0
r 1.420544044 _1_ RTR  --- 70 ack 40 [0 0 0 0] ------- [1:0 0:0 32 0] [25 0] 0 0
s 1.420544044 _1_ RTR  --- 70 ack 60 [0 0 0 0] ------- [1:0 0:0 32 0] [25 0] 0 0
r 1.422650044 _0_ AGT  --- 67 ack 60 [13a 0 1 800] ------- [1:0 0:0 32 0] [23 0] 1 0
s 1.422650044 _0_ AGT  --- 71 tcp 1040 [0 0 0 0] ------- [0:0 1:0 32 0] [43 0] 0 0
r 1.422650044 _0_ RTR  --- 71 tcp 1040 [0 0 0 0] ------- [0:0 1:0 32 0] [43 0] 0 0
s 1.422650044 _0_ RTR  --- 71 tcp 1060 [0 0 0 0] ------- [0:0 1:0 32 1] [43 0] 0 0
r 1.424756711 _0_ AGT  --- 69 ack 60 [13a 0 1 800] ------- [1:0 0:0 32 0] [24 0] 1 0
s 1.424756711 _0_ AGT  --- 72 tcp 1040 [0 0 0 0] ------- [0:0 1:0 32 0] [44 0] 0 0
r 1.424756711 _0_ RTR  --- 72 tcp 1040 [0 0 0 0] ------- [0:0 1:0 32 0] [44 0] 0 0
s 1.424756711 _0_ RTR  --- 72 tcp 1060 [0 0 0 0] ------- [0:0 1:0 32 1] [44 0] 0 0
r 1.426803378 _0_ AGT  --- 70 ack 60 [13a 0 1 800] ------- [1:0 0:0 32 0] [25 0] 1 0
s 1.426803378 _0_ AGT  --- 73 tcp 1040 [0 0 0 0] ------- [0:0 1:0 32 0] [45 0] 0 0
r 1.426803378 _0_ RTR  --- 73 tcp 1040 [0 0 0 0] ------- [0:0 1:0 32 0] [45 0] 0 0
s 1.426803378 _0_ RTR  --- 73 tcp 1060 [0 0 0 0] ------- [0:0 1:0 32 1] [45 0] 0 0
r 1.437109378 _1_ AGT  --- 41 tcp 1060 [13a 1 0 800] ------- [0:0 1:0 32 1] [26 0] 1 0
s 1.437109378 _1_ AGT  --- 74 ack 40 [0 0 0 0] ------- [1:0 0:0 32 0] [26 0] 0 0
r 1.437109378 _1_ RTR  --- 74 ack 40 [0 0 0 0] ------- [1:0 0:0 32 0] [26 0] 0 0
s 1.437109378 _1_ RTR  --- 74 ack 60 [0 0 0 0] ------- [1:0 0:0 32 0] [26 0] 0 0
r 1.447216044 _1_ AGT  --- 44 tcp 1060 [13a 1 0 800] ------- [0:0 1:0 32 1] [27 0] 1 0
s 1.447216044 _1_ AGT  --- 75 ack 40 [0 0 0 0] ------- [1:0 0:0 32 0] [27 0] 0 0
r 1.447216044 _1_ RTR  --- 75 ack 40 [0 0 0 0] ------- [1:0 0:0 32 0] [27 0] 0 0
s 1.447216044 _1_ RTR  --- 75 ack 60 [0 0 0 0] ------- [1:0 0:0 32 0] [27 0] 0 0
r 1.449362044 _0_ AGT  --- 74 ack 60 [13a 0 1 800] ------- [1:0 0:0 32 0] [26 0] 1 0
s 1.449362044 _0_ AGT  --- 76 tcp 1040 [0 0 0 0] ------- [0:0 1:0 32 0] [46 0] 0 0
r 1.449362044 _0_ RTR  --- 76 tcp 1040 [0 0 0 0] ------- [0:0 1:0 32 0] [46 0] 0 0
s 1.449362044 _0_ RTR  --- 76 tcp 1060 [0 0 0 0] ------- [0:0 1:0 32 1] [46 0] 0 0
r 1.451788711 _0_ AGT  --- 75 ack 60 [13a 0 1 800] ------- [1:0 0:0 32 0] [27 0] 1 0
s 1.451788711 _0_ AGT  --- 77 tcp 1040 [0 0 0 0] ------- [0:0 1:0 32 0] [47 0] 0 0
r 1.451788711 _0_ RTR  --- 77 tcp 1040 [0 0 0 0] ------- [0:0 1:0 32 0] [47 0] 0 0
s 1.451788711 _0_ RTR  --- 77 tcp 1060 [0 0 0 0] ------- [0:0 1:0 32 1] [47 0] 0 0
r 1.461794711 _1_ AGT  --- 45 tcp 1060 [13a 1 0 800] ------- [0:0 1:0 32 1] [28 0] 1 0
s 1.461794711 _1_ AGT  --- 78 ack 40 [0 0 0 0] ------- [1:0 0:0 32 0] [28 0] 0 0
r 1.461794711 _1_ RTR  --- 78 ack 40 [0 0 0 0] ------- [1:0 0:0 32 0] [28 0] 0 0
s 1.461794711 _1_ RTR  --- 78 ack 60 [0 0 0 0] ------- [1:0 0:0 32 0] [28 0] 0 0
r 1.472081378 _1_ AGT  --- 46 tcp 1060 [13a 1 0 800] ------- [0:0 1:0 32 1] [29 0] 1 0
s 1.472081378 _1_ AGT  --- 79 ack 40 [0 0 0 0] ------- [1:0 0:0 32 0] [29 0] 0 0
r 1.472081378 _1_ RTR  --- 79 ack 40 [0 0 0 0] ------- [1:0 0:0 32 0] [29 0] 0 0
s 1.472081378 _1_ RTR  --- 79 ack 60 [0 0 0 0] ------- [1:0 0:0 32 0] [29 0] 0 0
r 1.474307378 _0_ AGT  --- 78 ack 60 [13a 0 1 800] ------- [1:0 0:0 32 0] [28 0] 1 0
s 1.474307378 _0_ AGT  --- 80 tcp 1040 [0 0 0 0] ------- [0:0 1:0 32 0] [48 0] 0 0
r 1.474307378 _0_ RTR  --- 80 tcp 1040 [0 0 0 0] ------- [0:0 1:0 32 0] [48 0] 0 0
s 1.474307378 _0_ RTR  --- 80 tcp 1060 [0 0 0 0] ------- [0:0 1:0 32 1] [48 0] 0 0
r 1.484373378 _1_ AGT  --- 47 tcp 1060 [13a 1 0 800] ------- [0:0 1:0 32 1] [30 0] 1 0
s 1.484373378 _1_ AGT  --- 81 ack 40 [0 0 0 0] ------- [1:0 0:0 32 0] [30 0] 0 0
r 1.484373378 _1_ RTR  --- 81 ack 40 [0 0 0 0] ------- [1:0 0:0 32 0] [30 0] 0 0
s 1.484373378 _1_ RTR  --- 81 ack 60 [0 0 0 0] ------- [1:0 0:0 32 0] [30 0] 0 0
r 1.486599378 _0_ AGT  --- 79 ack 60 [13a 0 1 800] ------- [1:0 0:0 32 0] [29 0] 1 0
s 1.486599378 _0_ AGT  --- 82 tcp 1040 [0 0 0 0] ------- [0:0 1:0 32 0] [49 0] 0 0
r 1.486599378 _0_ RTR  --- 82 tcp 1040 [0 0 0 0] ------- [0:0 1:0 32 0] [49 0] 0 0
s 1.486599378 _0_ RTR  --- 82 tcp 1060 [0 0 0 0] ------- [0:0 1:0 32 1] [49 0] 0 0
r 1.488626044 _0_ AGT  --- 81 ack 60 [13a 0 1 800] ------- [1:0 0:0 32 0] [30 0] 1 0
s 1.488626044 _0_ AGT  --- 83 tcp 1040 [0 0 0 0] ------- [0:0 1:0 32 0] [50 0] 0 0
r 1.488626044 _0_ RTR  --- 83 tcp 1040 [0 0 0 0] ------- [0:0 1:0 32 0] [50 0] 0 0
s 1.488626044 _0_ RTR  --- 83 tcp 1060 [0 0 0 0] ------- [0:0 1:0 32 1] [50 0] 0 0
r 1.498692044 _1_ AGT  --- 50 tcp 1060 [13a 1 0 800] ------- [0:0 1:0 32 1] [31 0] 1 0
s 1.498692044 _1_ AGT  --- 84 ack 40 [0 0 0 0] ------- [1:0 0:0 32 0] [31 0] 0 0
r 1.498692044 _1_ RTR  --- 84 ack 40 [0 0 0 0] ------- [1:0 0:0 32 0] [31 0] 0 0
s 1.498692044 _1_ RTR  --- 84 ack 60 [0 0 0 0] ------- [1:0 0:0 32 0] [31 0] 0 0
r 1.508898711 _1_ AGT  --- 51 tcp 1060 [13a 1 0 800] ------- [0:0 1:0 32 1] [32 0] 1 0
s 1.508898711 _1_ AGT  --- 85 ack 40 [0 0 0 0] ------- [1:0 0:0 32 0] [32 0] 0 0
r 1.508898711 _1_ RTR  --- 85 ack 40 [0 0 0 0] ------- [1:0 0:0 32 0] [32 0] 0 0
s 1.508898711 _1_ RTR  --- 85 ack 60 [0 0 0 0] ------- [1:0 0:0 32 0] [32 0] 0 0
r 1.519065378 _1_ AGT  --- 52 tcp 1060 [13a 1 0 800] ------- [0:0 1:0 32 1] [33 0] 1 0
s 1.519065378 _1_ AGT  --- 86 ack 40 [0 0 0 0] ------- [1:0 0:0 32 0] [33 0] 0 0
r 1.519065378 _1_ RTR  --- 86 ack 40 [0 0 0 0] ------- [1:0 0:0 32 0] [33 0] 0 0
s 1.519065378 _1_ RTR  --- 86 ack 60 [0 0 0 0] ------- [1:0 0:0 32 0] [33 0] 0 0
r 1.521171378 _0_ AGT  --- 84 ack 60 [13a 0 1 800] ------- [1:0 0:0 32 0] [31 0] 1 0
s 1.521171378 _0_ AGT  --- 87 tcp 1040 [0 0 0 0] ------- [0:0 1:0 32 0] [51 0] 0 0
r 1.521171378 _0_ RTR  --- 87 tcp 1040 [0 0 0 0] ------- [0:0 1:0 32 0] [51 0] 0 0
s 1.521171378 _0_ RTR  --- 87 tcp 1060 [0 0 0 0] ------- [0:0 1:0 32 1] [51 0] 0 0
r 1.531217378 _1_ AGT  --- 53 tcp 1060 [13a 1 0 800] ------- [0:0 1:0 32 1] [34 0] 1 0
s 1.531217378 _1_ AGT  --- 88 ack 40 [0 0 0 0] ------- [1:0 0:0 32 0] [34 0] 0 0
r 1.531217378 _1_ RTR  --- 88 ack 40 [0 0 0 0] ------- [1:0 0:0 32 0] [34 0] 0 0
s 1.531217378 _1_ RTR  --- 88 ack 60 [0 0 0 0] ------- [1:0 0:0 32 0] [34 0] 0 0
r 1.535510711 _0_ AGT  --- 85 ack 60 [13a 0 1 800] ------- [1:0 0:0 32 0] [32 0] 1 0
s 1.535510711 _0_ AGT  --- 89 tcp 1040 [0 0 0 0] ------- [0:0 1:0 32 0] [52 0] 0 0
r 1.535510711 _0_ RTR  --- 89 tcp 1040 [0 0 0 0] ------- [0:0 1:0 32 0] [52 0] 0 0
s 1.535510711 _0_ RTR  --- 89 tcp 1060 [0 0 0 0] ------- [0:0 1:0 32 1] [52 0] 0 0
r 1.545536711 _1_ AGT  --- 55 tcp 1060 [13a 1 0 800] ------- [0:0 1:0 32 1] [35 0] 1 0
s 1.545536711 _1_ AGT  --- 90 ack 40 [0 0 0 0] ------- [1:0 0:0 32 0] [35 0] 0 0
r 1.545536711 _1_ RTR  --- 90 ack 40 [0 0 0 0] ------- [1:0 0:0 32 0] [35 0] 0 0
s 1.545536711 _1_ RTR  --- 90 ack 60 [0 0 0 0] ------- [1:0 0:0 32 0] [35 0] 0 0
r 1.555523378 _1_ AGT  --- 56 tcp 1060 [13a 1 0 800] ------- [0:0 1:0 32 1] [36 0] 1 0
s 1.555523378 _1_ AGT  --- 91 ack 40 [0 0 0 0] ------- [1:0 0:0 32 0] [36 0] 0 0
r 1.555523378 _1_ RTR  --- 91 ack 40 [0 0 0 0] ------- [1:0 0:0 32 0] [36 0] 0 0
s 1.555523378 _1_ RTR  --- 91 ack 60 [0 0 0 0] ------- [1:0 0:0 32 0] [36 0] 0 0
r 1.565650044 _1_ AGT  --- 59 tcp 1060 [13a 1 0 800] ------- [0:0 1:0 32 1] [37 0] 1 0
s 1.565650044 _1_ AGT  --- 92 ack 40 [0 0 0 0] ------- [1:0 0:0 32 0] [37 0] 0 0
r 1.565650044 _1_ RTR  --- 92 ack 40 [0 0 0 0] ------- [1:0 0:0 32 0] [37 0] 0 0
s 1.565650044 _1_ RTR  --- 92 ack 60 [0 0 0 0] ------- [1:0 0:0 32 0] [37 0] 0 0
r 1.567696044 _0_ AGT  --- 86 ack 60 [13a 0 1 800] ------- [1:0 0:0 32 0] [33 0] 1 0
s 1.567696044 _0_ AGT  --- 93 tcp 1040 [0 0 0 0] ------- [0:0 1:0 32 0] [53 0] 0 0
r 1.567696044 _0_ RTR  --- 93 tcp 1040 [0 0 0 0] ------- [0:0 1:0 32 0] [53 0] 0 0
s 1.567696044 _0_ RTR  --- 93 tcp 1060 [0 0 0 0] ------- [0:0 1:0 32 1] [53 0] 0 0
r 1.579609378 _1_ AGT  --- 60 tcp 1060 [13a 1 0 800] ------- [0:0 1:0 32 1] [38 0] 1 0
s 1.579609378 _1_ AGT  --- 94 ack 40 [0 0 0 0] ------- [1:0 0:0 32 0] [38 0] 0 0
r 1.579609378 _1_ RTR  --- 94 ack 40 [0 0 0 0] ------- [1:0 0:0 32 0] [38 0] 0 0
s 1.579609378 _1_ RTR  --- 94 ack 60 [0 0 0 0] ------- [1:0 0:0 32 0] [38 0] 0 0
r 1.581755378 _0_ AGT  --- 88 ack 60 [13a 0 1 800] ------- [1:0 0:0 32 0] [34 0] 1 0
s 1.581755378 _0_ AGT  --- 95 tcp 1040 [0 0 0 0] ------- [0:0 1:0 32 0] [54 0] 0 0
r 1.581755378 _0_ RTR  --- 95 tcp 1040 [0 0 0 0] ------- [0:0 1:0 32 0] [54 0] 0 0
s 1.581755378 _0_ RTR  --- 95 tcp 1060 [0 0 0 0] ------- [0:0 1:0 32 1] [54 0] 0 0
r 1.583902044 _0_ AGT  --- 90 ack 60 [13a 0 1 800] ------- [1:0 0:0 32 0] [35 0] 1 0
s 1.583902044 _0_ AGT  --- 96 tcp 1040 [0 0 0 0] ------- [0:0 1:0 32 0] [55 0] 0 0