s 1.000000000 _1_ AGT  --- 0 tcp 40 [0 0 0 0] ------- [1:0 36:0 32 0] [0 0] 0 0
r 1.000000000 _1_ RTR  --- 0 tcp 40 [0 0 0 0] ------- [1:0 36:0 32 0] [0 0] 0 0
s 1.000000000 _1_ AGT  --- 1 tcp 40 [0 0 0 0] ------- [1:1 9:0 32 0] [0 0] 0 0
r 1.000000000 _1_ RTR  --- 1 tcp 40 [0 0 0 0] ------- [1:1 9:0 32 0] [0 0] 0 0
s 1.000000000 _1_ AGT  --- 2 tcp 40 [0 0 0 0] ------- [1:2 19:0 32 0] [0 0] 0 0
r 1.000000000 _1_ RTR  --- 2 tcp 40 [0 0 0 0] ------- [1:2 19:0 32 0] [0 0] 0 0
s 1.000000000 _1_ AGT  --- 3 tcp 40 [0 0 0 0] ------- [1:3 14:0 32 0] [0 0] 0 0
r 1.000000000 _1_ RTR  --- 3 tcp 40 [0 0 0 0] ------- [1:3 14:0 32 0] [0 0] 0 0
s 1.000000000 _1_ AGT  --- 4 tcp 40 [0 0 0 0] ------- [1:4 6:0 32 0] [0 0] 0 0
r 1.000000000 _1_ RTR  --- 4 tcp 40 [0 0 0 0] ------- [1:4 6:0 32 0] [0 0] 0 0
s 1.000000000 _1_ AGT  --- 5 tcp 40 [0 0 0 0] ------- [1:5 29:0 32 0] [0 0] 0 0
r 1.000000000 _1_ RTR  --- 5 tcp 40 [0 0 0 0] ------- [1:5 29:0 32 0] [0 0] 0 0
s 1.000000000 _1_ AGT  --- 6 tcp 40 [0 0 0 0] ------- [1:6 16:0 32 0] [0 0] 0 0
r 1.000000000 _1_ RTR  --- 6 tcp 40 [0 0 0 0] ------- [1:6 16:0 32 0] [0 0] 0 0
s 1.000000000 _1_ AGT  --- 7 tcp 40 [0 0 0 0] ------- [1:7 21:0 32 0] [0 0] 0 0
r 1.000000000 _1_ RTR  --- 7 tcp 40 [0 0 0 0] ------- [1:7 21:0 32 0] [0 0] 0 0
s 1.000000000 _1_ AGT  --- 8 tcp 40 [0 0 0 0] ------- [1:8 17:0 32 0] [0 0] 0 0
r 1.000000000 _1_ RTR  --- 8 tcp 40 [0 0 0 0] ------- [1:8 17:0 32 0] [0 0] 0 0
s 1.000000000 _1_ AGT  --- 9 tcp 40 [0 0 0 0] ------- [1:9 13:0 32 0] [0 0] 0 0
r 1.000000000 _1_ RTR  --- 9 tcp 40 [0 0 0 0] ------- [1:9 13:0 32 0] [0 0] 0 0
s 1.000000000 _1_ AGT  --- 10 tcp 40 [0 0 0 0] ------- [1:10 15:0 32 0] [0 0] 0 0
r 1.000000000 _1_ RTR  --- 10 tcp 40 [0 0 0 0] ------- [1:10 15:0 32 0] [0 0] 0 0
s 1.000000000 _1_ AGT  --- 11 tcp 40 [0 0 0 0] ------- [1:11 16:1 32 0] [0 0] 0 0
r 1.000000000 _1_ RTR  --- 11 tcp 40 [0 0 0 0] ------- [1:11 16:1 32 0] [0 0] 0 0
s 1.000000000 _1_ AGT  --- 12 tcp 40 [0 0 0 0] ------- [1:12 9:1 32 0] [0 0] 0 0
r 1.000000000 _1_ RTR  --- 12 tcp 40 [0 0 0 0] ------- [1:12 9:1 32 0] [0 0] 0 0
s 1.000000000 _1_ AGT  --- 13 tcp 40 [0 0 0 0] ------- [1:13 35:0 32 0] [0 0] 0 0
r 1.000000000 _1_ RTR  --- 13 tcp 40 [0 0 0 0] ------- [1:13 35:0 32 0] [0 0] 0 0
s 1.000000000 _1_ AGT  --- 14 tcp 40 [0 0 0 0] ------- [1:14 28:0 32 0] [0 0] 0 0
r 1.000000000 _1_ RTR  --- 14 tcp 40 [0 0 0 0] ------- [1:14 28:0 32 0] [0 0] 0 0
s 1.000000000 _1_ AGT  --- 15 tcp 40 [0 0 0 0] ------- [1:15 2:0 32 0] [0 0] 0 0
r 1.000000000 _1_ RTR  --- 15 tcp 40 [0 0 0 0] ------- [1:15 2:0 32 0] [0 0] 0 0
s 1.000000000 _1_ AGT  --- 16 tcp 40 [0 0 0 0] ------- [1:16 19:1 32 0] [0 0] 0 0
r 1.000000000 _1_ RTR  --- 16 tcp 40 [0 0 0 0] ------- [1:16 19:1 32 0] [0 0] 0 0
s 1.000000000 _1_ AGT  --- 17 tcp 40 [0 0 0 0] ------- [1:17 15:1 32 0] [0 0] 0 0
r 1.000000000 _1_ RTR  --- 17 tcp 40 [0 0 0 0] ------- [1:17 15:1 32 0] [0 0] 0 0
s 1.000000000 _1_ AGT  --- 18 tcp 40 [0 0 0 0] ------- [1:18 30:0 32 0] [0 0] 0 0
r 1.000000000 _1_ RTR  --- 18 tcp 40 [0 0 0 0] ------- [1:18 30:0 32 0] [0 0] 0 0
s 1.000000000 _1_ AGT  --- 19 tcp 40 [0 0 0 0] ------- [1:19 29:1 32 0] [0 0] 0 0
r 1.000000000 _1_ RTR  --- 19 tcp 40 [0 0 0 0] ------- [1:19 29:1 32 0] [0 0] 0 0
s 1.000000000 _1_ AGT  --- 20 tcp 40 [0 0 0 0] ------- [1:20 24:0 32 0] [0 0] 0 0
r 1.000000000 _1_ RTR  --- 20 tcp 40 [0 0 0 0] ------- [1:20 24:0 32 0] [0 0] 0 0
s 1.000000000 _1_ AGT  --- 21 tcp 40 [0 0 0 0] ------- [1:21 0:0 32 0] [0 0] 0 0
r 1.000000000 _1_ RTR  --- 21 tcp 40 [0 0 0 0] ------- [1:21 0:0 32 0] [0 0] 0 0
s 1.000000000 _1_ AGT  --- 22 tcp 40 [0 0 0 0] ------- [1:22 3:0 32 0] [0 0] 0 0
r 1.000000000 _1_ RTR  --- 22 tcp 40 [0 0 0 0] ------- [1:22 3:0 32 0] [0 0] 0 0
s 1.000000000 _1_ AGT  --- 23 tcp 40 [0 0 0 0] ------- [1:23 35:1 32 0] [0 0] 0 0
r 1.000000000 _1_ RTR  --- 23 tcp 40 [0 0 0 0] ------- [1:23 35:1 32 0] [0 0] 0 0
s 1.000000000 _1_ AGT  --- 24 tcp 40 [0 0 0 0] ------- [1:24 30:1 32 0] [0 0] 0 0
r 1.000000000 _1_ RTR  --- 24 tcp 40 [0 0 0 0] ------- [1:24 30:1 32 0] [0 0] 0 0
s 1.000000000 _1_ AGT  --- 25 tcp 40 [0 0 0 0] ------- [1:25 19:2 32 0] [0 0] 0 0
r 1.000000000 _1_ RTR  --- 25 tcp 40 [0 0 0 0] ------- [1:25 19:2 32 0] [0 0] 0 0
s 1.000000000 _1_ AGT  --- 26 tcp 40 [0 0 0 0] ------- [1:26 0:1 32 0] [0 0] 0 0
r 1.000000000 _1_ RTR  --- 26 tcp 40 [0 0 0 0] ------- [1:26 0:1 32 0] [0 0] 0 0
s 1.000000000 _1_ AGT  --- 27 tcp 40 [0 0 0 0] ------- [1:27 36:1 32 0] [0 0] 0 0
r 1.000000000 _1_ RTR  --- 27 tcp 40 [0 0 0 0] ------- [1:27 36:1 32 0] [0 0] 0 0
s 1.000000000 _1_ AGT  --- 28 tcp 40 [0 0 0 0] ------- [1:28 9:2 32 0] [0 0] 0 0
r 1.000000000 _1_ RTR  --- 28 tcp 40 [0 0 0 0] ------- [1:28 9:2 32 0] [0 0] 0 0
s 1.000000000 _1_ AGT  --- 29 tcp 40 [0 0 0 0] ------- [1:29 2:1 32 0] [0 0] 0 0
r 1.000000000 _1_ RTR  --- 29 tcp 40 [0 0 0 0] ------- [1:29 2:1 32 0] [0 0] 0 0
s 1.000000000 _1_ AGT  --- 30 tcp 40 [0 0 0 0] ------- [1:30 21:1 32 0] [0 0] 0 0
r 1.000000000 _1_ RTR  --- 30 tcp 40 [0 0 0 0] ------- [1:30 21:1 32 0] [0 0] 0 0
s 1.000000000 _1_ AGT  --- 31 tcp 40 [0 0 0 0] ------- [1:31 29:2 32 0] [0 0] 0 0
r 1.000000000 _1_ RTR  --- 31 tcp 40 [0 0 0 0] ------- [1:31 29:2 32 0] [0 0] 0 0
s 1.000000000 _1_ AGT  --- 32 tcp 40 [0 0 0 0] ------- [1:32 21:2 32 0] [0 0] 0 0
r 1.000000000 _1_ RTR  --- 32 tcp 40 [0 0 0 0] ------- [1:32 21:2 32 0] [0 0] 0 0
s 1.000000000 _1_ AGT  --- 33 tcp 40 [0 0 0 0] ------- [1:33 7:0 32 0] [0 0] 0 0
r 1.000000000 _1_ RTR  --- 33 tcp 40 [0 0 0 0] ------- [1:33 7:0 32 0] [0 0] 0 0
s 1.000000000 _1_ AGT  --- 34 tcp 40 [0 0 0 0] ------- [1:34 17:1 32 0] [0 0] 0 0
r 1.000000000 _1_ RTR  --- 34 tcp 40 [0 0 0 0] ------- [1:34 17:1 32 0] [0 0] 0 0
s 1.000000000 _1_ AGT  --- 35 tcp 40 [0 0 0 0] ------- [1:35 5:0 32 0] [0 0] 0 0
r 1.000000000 _1_ RTR  --- 35 tcp 40 [0 0 0 0] ------- [1:35 5:0 32 0] [0 0] 0 0
s 1.000000000 _1_ AGT  --- 36 tcp 40 [0 0 0 0] ------- [1:36 27:0 32 0] [0 0] 0 0
r 1.000000000 _1_ RTR  --- 36 tcp 40 [0 0 0 0] ------- [1:36 27:0 32 0] [0 0] 0 0
s 1.000000000 _1_ AGT  --- 37 tcp 40 [0 0 0 0] ------- [1:37 6:1 32 0] [0 0] 0 0
r 1.000000000 _1_ RTR  --- 37 tcp 40 [0 0 0 0] ------- [1:37 6:1 32 0] [0 0] 0 0
s 1.000000000 _1_ AGT  --- 38 tcp 40 [0 0 0 0] ------- [1:38 21:3 32 0] [0 0] 0 0
r 1.000000000 _1_ RTR  --- 38 tcp 40 [0 0 0 0] ------- [1:38 21:3 32 0] [0 0] 0 0
s 1.000000000 _1_ AGT  --- 39 tcp 40 [0 0 0 0] ------- [1:39 22:0 32 0] [0 0] 0 0
r 1.000000000 _1_ RTR  --- 39 tcp 40 [0 0 0 0] ------- [1:39 22:0 32 0] [0 0] 0 0
s 1.000000000 _1_ AGT  --- 40 tcp 40 [0 0 0 0] ------- [1:40 16:2 32 0] [0 0] 0 0
r 1.000000000 _1_ RTR  --- 40 tcp 40 [0 0 0 0] ------- [1:40 16:2 32 0] [0 0] 0 0
s 1.000000000 _1_ AGT  --- 41 tcp 40 [0 0 0 0] ------- [1:41 19:3 32 0] [0 0] 0 0
r 1.000000000 _1_ RTR  --- 41 tcp 40 [0 0 0 0] ------- [1:41 19:3 32 0] [0 0] 0 0
s 1.000000000 _1_ AGT  --- 42 tcp 40 [0 0 0 0] ------- [1:42 8:0 32 0] [0 0] 0 0
r 1.000000000 _1_ RTR  --- 42 tcp 40 [0 0 0 0] ------- [1:42 8:0 32 0] [0 0] 0 0
s 1.000000000 _1_ AGT  --- 43 tcp 40 [0 0 0 0] ------- [1:43 31:0 32 0] [0 0] 0 0
r 1.000000000 _1_ RTR  --- 43 tcp 40 [0 0 0 0] ------- [1:43 31:0 32 0] [0 0] 0 0
s 1.000000000 _1_ AGT  --- 44 tcp 40 [0 0 0 0] ------- [1:44 28:1 32 0] [0 0] 0 0
r 1.000000000 _1_ RTR  --- 44 tcp 40 [0 0 0 0] ------- [1:44 28:1 32 0] [0 0] 0 0
s 1.000000000 _1_ AGT  --- 45 tcp 40 [0 0 0 0] ------- [1:45 32:0 32 0] [0 0] 0 0
r 1.000000000 _1_ RTR  --- 45 tcp 40 [0 0 0 0] ------- [1:45 32:0 32 0] [0 0] 0 0
s 1.000000000 _1_ AGT  --- 46 tcp 40 [0 0 0 0] ------- [1:46 29:3 32 0] [0 0] 0 0
r 1.000000000 _1_ RTR  --- 46 tcp 40 [0 0 0 0] ------- [1:46 29:3 32 0] [0 0] 0 0
s 1.000000000 _1_ AGT  --- 47 tcp 40 [0 0 0 0] ------- [1:47 38:0 32 0] [0 0] 0 0
r 1.000000000 _1_ RTR  --- 47 tcp 40 [0 0 0 0] ------- [1:47 38:0 32 0] [0 0] 0 0
s 1.000000000 _1_ AGT  --- 48 tcp 40 [0 0 0 0] ------- [1:48 21:4 32 0] [0 0] 0 0
r 1.000000000 _1_ RTR  --- 48 tcp 40 [0 0 0 0] ------- [1:48 21:4 32 0] [0 0] 0 0
s 1.000000000 _1_ AGT  --- 49 tcp 40 [0 0 0 0] ------- [1:49 2:2 32 0] [0 0] 0 0
r 1.000000000 _1_ RTR  --- 49 tcp 40 [0 0 0 0] ------- [1:49 2:2 32 0] [0 0] 0 0
s 1.000000000 _1_ RTR  --- 0 AODV 48 [0 0 0 0] ------- [1:255 -1:255 30 0] [0x2 1 1 [36 0] [1 4]] (REQUEST)
s 1.000000000 _1_ RTR  --- 0 AODV 48 [0 0 0 0] ------- [1:255 -1:255 30 0] [0x2 1 2 [9 0] [1 6]] (REQUEST)
s 1.000000000 _1_ RTR  --- 0 AODV 48 [0 0 0 0] ------- [1:255 -1:255 30 0] [0x2 1 3 [19 0] [1 8]] (REQUEST)
s 1.000000000 _1_ RTR  --- 0 AODV 48 [0 0 0 0] ------- [1:255 -1:255 30 0] [0x2 1 4 [14 0] [1 10]] (REQUEST)
s 1.000000000 _1_ RTR  --- 0 AODV 48 [0 0 0 0] ------- [1:255 -1:255 30 0] [0x2 1 5 [6 0] [1 12]] (REQUEST)
s 1.000000000 _1_ RTR  --- 0 AODV 48 [0 0 0 0] ------- [1:255 -1:255 30 0] [0x2 1 6 [29 0] [1 14]] (REQUEST)
s 1.000000000 _1_ RTR  --- 0 AODV 48 [0 0 0 0] ------- [1:255 -1:255 30 0] [0x2 1 7 [16 0] [1 16]] (REQUEST)
s 1.000000000 _1_ RTR  --- 0 AODV 48 [0 0 0 0] ------- [1:255 -1:255 30 0] [0x2 1 8 [21 0] [1 18]] (REQUEST)
s 1.000000000 _1_ RTR  --- 0 AODV 48 [0 0 0 0] ------- [1:255 -1:255 30 0] [0x2 1 9 [17 0] [1 20]] (REQUEST)
s 1.000000000 _1_ RTR  --- 0 AODV 48 [0 0 0 0] ------- [1:255 -1:255 30 0] [0x2 1 10 [13 0] [1 22]] (REQUEST)
s 1.000000000 _1_ RTR  --- 0 AODV 48 [0 0 0 0] ------- [1:255 -1:255 30 0] [0x2 1 11 [15 0] [1 24]] (REQUEST)
s 1.000000000 _1_ RTR  --- 0 AODV 48 [0 0 0 0] ------- [1:255 -1:255 30 0] [0x2 1 12 [35 0] [1 26]] (REQUEST)
s 1.000000000 _1_ RTR  --- 0 AODV 48 [0 0 0 0] ------- [1:255 -1:255 30 0] [0x2 1 13 [28 0] [1 28]] (REQUEST)
s 1.000000000 _1_ RTR  --- 0 AODV 48 [0 0 0 0] ------- [1:255 -1:255 30 0] [0x2 1 14 [2 0] [1 30]] (REQUEST)
s 1.000000000 _1_ RTR  --- 0 AODV 48 [0 0 0 0] ------- [1:255 -1:255 30 0] [0x2 1 15 [30 0] [1 32]] (REQUEST)
s 1.000000000 _1_ RTR  --- 0 AODV 48 [0 0 0 0] ------- [1:255 -1:255 30 0] [0x2 1 16 [24 0] [1 34]] (REQUEST)
s 1.000000000 _1_ RTR  --- 0 AODV 48 [0 0 0 0] ------- [1:255 -1:255 30 0] [0x2 1 17 [0 0] [1 36]] (REQUEST)
s 1.000000000 _1_ RTR  --- 0 AODV 48 [0 0 0 0] ------- [1:255 -1:255 30 0] [0x2 1 18 [3 0] [1 38]] (REQUEST)
s 1.000000000 _1_ RTR  --- 0 AODV 48 [0 0 0 0] ------- [1:255 -1:255 30 0] [0x2 1 19 [7 0] [1 40]] (REQUEST)
s 1.000000000 _1_ RTR  --- 0 AODV 48 [0 0 0 0] ------- [1:255 -1:255 30 0] [0x2 1 20 [5 0] [1 42]] (REQUEST)
s 1.000000000 _1_ RTR  --- 0 AODV 48 [0 0 0 0] ------- [1:255 -1:255 30 0] [0x2 1 21 [27 0] [1 44]] (REQUEST)
s 1.000000000 _1_ RTR  --- 0 AODV 48 [0 0 0 0] ------- [1:255 -1:255 30 0] [0x2 1 22 [22 0] [1 46]] (REQUEST)
s 1.000000000 _1_ RTR  --- 0 AODV 48 [0 0 0 0] ------- [1:255 -1:255 30 0] [0x2 1 23 [8 0] [1 48]] (REQUEST)
s 1.000000000 _1_ RTR  --- 0 AODV 48 [0 0 0 0] ------- [1:255 -1:255 30 0] [0x2 1 24 [31 0] [1 50]] (REQUEST)
s 1.000000000 _1_ RTR  --- 0 AODV 48 [0 0 0 0] ------- [1:255 -1:255 30 0] [0x2 1 25 [32 0] [1 52]] (REQUEST)
s 1.000000000 _1_ RTR  --- 0 AODV 48 [0 0 0 0] ------- [1:255 -1:255 30 0] [0x2 1 26 [38 0] [1 54]] (REQUEST)
r 1.003922345 _29_ RTR  --- 0 AODV 48 [0 ffffffff 1 800] ------- [1:255 -1:255 30 0] [0x2 1 1 [36 0] [1 4]] (REQUEST)
r 1.003922459 _34_ RTR  --- 0 AODV 48 [0 ffffffff 1 800] ------- [1:255 -1:255 30 0] [0x2 1 1 [36 0] [1 4]] (REQUEST)
r 1.003922486 _21_ RTR  --- 0 AODV 48 [0 ffffffff 1 800] ------- [1:255 -1:255 30 0] [0x2 1 1 [36 0] [1 4]] (REQUEST)
r 1.003922494 _38_ RTR  --- 0 AODV 48 [0 ffffffff 1 800] ------- [1:255 -1:255 30 0] [0x2 1 1 [36 0] [1 4]] (REQUEST)
r 1.003922499 _25_ RTR  --- 0 AODV 48 [0 ffffffff 1 800] ------- [1:255 -1:255 30 0] [0x2 1 1 [36 0] [1 4]] (REQUEST)
r 1.003922512 _16_ RTR  --- 0 AODV 48 [0 ffffffff 1 800] ------- [1:255 -1:255 30 0] [0x2 1 1 [36 0] [1 4]] (REQUEST)
r 1.003922564 _20_ RTR  --- 0 AODV 48 [0 ffffffff 1 800] ------- [1:255 -1:255 30 0] [0x2 1 1 [36 0] [1 4]] (REQUEST)
r 1.003922611 _7_ RTR  --- 0 AODV 48 [0 ffffffff 1 800] ------- [1:255 -1:255 30 0] [0x2 1 1 [36 0] [1 4]] (REQUEST)
r 1.003922744 _14_ RTR  --- 0 AODV 48 [0 ffffffff 1 800] ------- [1:255 -1:255 30 0] [0x2 1 1 [36 0] [1 4]] (REQUEST)
r 1.003922755 _11_ RTR  --- 0 AODV 48 [0 ffffffff 1 800] ------- [1:255 -1:255 30 0] [0x2 1 1 [36 0] [1 4]] (REQUEST)
r 1.003922762 _5_ RTR  --- 0 AODV 48 [0 ffffffff 1 800] ------- [1:255 -1:255 30 0] [0x2 1 1 [36 0] [1 4]] (REQUEST)
r 1.003922796 _15_ RTR  --- 0 AODV 48 [0 ffffffff 1 800] ------- [1:255 -1:255 30 0] [0x2 1 1 [36 0] [1 4]] (REQUEST)
s 1.004509479 _25_ RTR  --- 0 AODV 48 [0 ffffffff 1 800] ------- [25:255 -1:255 29 0] [0x2 2 1 [36 0] [1 4]] (REQUEST)
s 1.006190793 _21_ RTR  --- 0 AODV 48 [0 ffffffff 1 800] ------- [21:255 -1:255 29 0] [0x2 2 1 [36 0] [1 4]] (REQUEST)
s 1.006212524 _11_ RTR  --- 0 AODV 48 [0 ffffffff 1 800] ------- [11:255 -1:255 29 0] [0x2 2 1 [36 0] [1 4]] (REQUEST)
s 1.007322125 _16_ RTR  --- 0 AODV 48 [0 ffffffff 1 800] ------- [16:255 -1:255 29 0] [0x2 2 1 [36 0] [1 4]] (REQUEST)
r 1.007794345 _29_ RTR  --- 0 AODV 48 [0 ffffffff 1 800] ------- [1:255 -1:255 30 0] [0x2 1 26 [38 0] [1 54]] (REQUEST)
r 1.007794459 _34_ RTR  --- 0 AODV 48 [0 ffffffff 1 800] ------- [1:255 -1:255 30 0] [0x2 1 26 [38 0] [1 54]] (REQUEST)
r 1.007794486 _21_ RTR  --- 0 AODV 48 [0 ffffffff 1 800] ------- [1:255 -1:255 30 0] [0x2 1 26 [38 0] [1 54]] (REQUEST)
r 1.007794494 _38_ RTR  --- 0 AODV 48 [0 ffffffff 1 800] ------- [1:255 -1:255 30 0] [0x2 1 26 [38 0] [1 54]] (REQUEST)
s 1.007794494 _38_ RTR  --- 0 AODV 44 [0 0 0 0] ------- [38:255 1:255 30 1] [0x4 1 [38 4] 10.000000] (REPLY)
r 1.007794499 _25_ RTR  --- 0 AODV 48 [0 ffffffff 1 800] ------- [1:255 -1:255 30 0] [0x2 1 26 [38 0] [1 54]] (REQUEST)
r 1.007794512 _16_ RTR  --- 0 AODV 48 [0 ffffffff 1 800] ------- [1:255 -1:255 30 0] [0x2 1 26 [38 0] [1 54]] (REQUEST)
r 1.007794564 _20_ RTR  --- 0 AODV 48 [0 ffffffff 1 800] ------- [1:255 -1:255 30 0] [0x2 1 26 [38 0] [1 54]] (REQUEST)
r 1.007794611 _7_ RTR  --- 0 AODV 48 [0 ffffffff 1 800] ------- [1:255 -1:255 30 0] [0x2 1 26 [38 0] [1 54]] (REQUEST)
r 1.007794744 _14_ RTR  --- 0 AODV 48 [0 ffffffff 1 800] ------- [1:255 -1:255 30 0] [0x2 1 26 [38 0] [1 54]] (REQUEST)
r 1.007794755 _11_ RTR  --- 0 AODV 48 [0 ffffffff 1 800] ------- [1:255 -1:255 30 0] [0x2 1 26 [38 0] [1 54]] (REQUEST)
r 1.007794762 _5_ RTR  --- 0 AODV 48 [0 ffffffff 1 800] ------- [1:255 -1:255 30 0] [0x2 1 26 [38 0] [1 54]] (REQUEST)
r 1.007794796 _15_ RTR  --- 0 AODV 48 [0 ffffffff 1 800] ------- [1:255 -1:255 30 0] [0x2 1 26 [38 0] [1 54]] (REQUEST)
s 1.008256847 _14_ RTR  --- 0 AODV 48 [0 ffffffff 1 800] ------- [14:255 -1:255 29 0] [0x2 2 1 [36 0] [1 4]] (REQUEST)
s 1.008341193 _5_ RTR  --- 0 AODV 48 [0 ffffffff 1 800] ------- [5:255 -1:255 29 0] [0x2 2 1 [36 0] [1 4]] (REQUEST)
s 1.008459336 _21_ RTR  --- 0 AODV 48 [0 ffffffff 1 800] ------- [21:255 -1:255 29 0] [0x2 2 26 [38 0] [1 54]] (REQUEST)
s 1.009707358 _29_ RTR  --- 0 AODV 48 [0 ffffffff 1 800] ------- [29:255 -1:255 29 0] [0x2 2 1 [36 0] [1 4]] (REQUEST)
s 1.009853621 _15_ RTR  --- 0 AODV 48 [0 ffffffff 1 800] ------- [15:255 -1:255 29 0] [0x2 2 26 [38 0] [1 54]] (REQUEST)
r 1.010112939 _29_ RTR  --- 0 AODV 48 [0 ffffffff 15 800] ------- [21:255 -1:255 29 0] [0x2 2 1 [36 0] [1 4]] (REQUEST)
r 1.010112960 _25_ RTR  --- 0 AODV 48 [0 ffffffff 15 800] ------- [21:255 -1:255 29 0] [0x2 2 1 [36 0] [1 4]] (REQUEST)
r 1.010112969 _34_ RTR  --- 0 AODV 48 [0 ffffffff 15 800] ------- [21:255 -1:255 29 0] [0x2 2 1 [36 0] [1 4]] (REQUEST)
r 1.010113006 _7_ RTR  --- 0 AODV 48 [0 ffffffff 15 800] ------- [21:255 -1:255 29 0] [0x2 2 1 [36 0] [1 4]] (REQUEST)
r 1.010113053 _38_ RTR  --- 0 AODV 48 [0 ffffffff 15 800] ------- [21:255 -1:255 29 0] [0x2 2 1 [36 0] [1 4]] (REQUEST)
r 1.010113106 _14_ RTR  --- 0 AODV 48 [0 ffffffff 15 800] ------- [21:255 -1:255 29 0] [0x2 2 1 [36 0] [1 4]] (REQUEST)
r 1.010113184 _5_ RTR  --- 0 AODV 48 [0 ffffffff 15 800] ------- [21:255 -1:255 29 0] [0x2 2 1 [36 0] [1 4]] (REQUEST)
r 1.010113203 _10_ RTR  --- 0 AODV 48 [0 ffffffff 15 800] ------- [21:255 -1:255 29 0] [0x2 2 1 [36 0] [1 4]] (REQUEST)
r 1.010113243 _11_ RTR  --- 0 AODV 48 [0 ffffffff 15 800] ------- [21:255 -1:255 29 0] [0x2 2 1 [36 0] [1 4]] (REQUEST)
r 1.010113278 _1_ RTR  --- 0 AODV 48 [0 ffffffff 15 800] ------- [21:255 -1:255 29 0] [0x2 2 1 [36 0] [1 4]] (REQUEST)
r 1.010113379 _27_ RTR  --- 0 AODV 48 [0 ffffffff 15 800] ------- [21:255 -1:255 29 0] [0x2 2 1 [36 0] [1 4]] (REQUEST)
r 1.010113388 _35_ RTR  --- 0 AODV 48 [0 ffffffff 15 800] ------- [21:255 -1:255 29 0] [0x2 2 1 [36 0] [1 4]] (REQUEST)
r 1.010113388 _3_ RTR  --- 0 AODV 48 [0 ffffffff 15 800] ------- [21:255 -1:255 29 0] [0x2 2 1 [36 0] [1 4]] (REQUEST)
r 1.010113397 _16_ RTR  --- 0 AODV 48 [0 ffffffff 15 800] ------- [21:255 -1:255 29 0] [0x2 2 1 [36 0] [1 4]] (REQUEST)
r 1.010113414 _19_ RTR  --- 0 AODV 48 [0 ffffffff 15 800] ------- [21:255 -1:255 29 0] [0x2 2 1 [36 0] [1 4]] (REQUEST)
r 1.010113416 _31_ RTR  --- 0 AODV 48 [0 ffffffff 15 800] ------- [21:255 -1:255 29 0] [0x2 2 1 [36 0] [1 4]] (REQUEST)
r 1.010113434 _33_ RTR  --- 0 AODV 48 [0 ffffffff 15 800] ------- [21:255 -1:255 29 0] [0x2 2 1 [36 0] [1 4]] (REQUEST)
r 1.010113449 _20_ RTR  --- 0 AODV 48 [0 ffffffff 15 800] ------- [21:255 -1:255 29 0] [0x2 2 1 [36 0] [1 4]] (REQUEST)
r 1.010113461 _24_ RTR  --- 0 AODV 48 [0 ffffffff 15 800] ------- [21:255 -1:255 29 0] [0x2 2 1 [36 0] [1 4]] (REQUEST)
r 1.010113523 _13_ RTR  --- 0 AODV 48 [0 ffffffff 15 800] ------- [21:255 -1:255 29 0] [0x2 2 1 [36 0] [1 4]] (REQUEST)
r 1.010113535 _15_ RTR  --- 0 AODV 48 [0 ffffffff 15 800] ------- [21:255 -1:255 29 0] [0x2 2 1 [36 0] [1 4]] (REQUEST)
r 1.010113554 _4_ RTR  --- 0 AODV 48 [0 ffffffff 15 800] ------- [21:255 -1:255 29 0] [0x2 2 1 [36 0] [1 4]] (REQUEST)
r 1.010113593 _18_ RTR  --- 0 AODV 48 [0 ffffffff 15 800] ------- [21:255 -1:255 29 0] [0x2 2 1 [36 0] [1 4]] (REQUEST)
s 1.010293406 _7_ RTR  --- 0 AODV 48 [0 ffffffff 1 800] ------- [7:255 -1:255 29 0] [0x2 2 1 [36 0] [1 4]] (REQUEST)
s 1.010423353 _14_ RTR  --- 0 AODV 48 [0 ffffffff 1 800] ------- [14:255 -1:255 29 0] [0x2 2 26 [38 0] [1 54]] (REQUEST)
s 1.010652548 _35_ RTR  --- 0 AODV 48 [0 ffffffff 15 800] ------- [35:255 -1:255 28 0] [0x2 3 1 [36 0] [1 4]] (REQUEST)
s 1.010666882 _31_ RTR  --- 0 AODV 48 [0 ffffffff 15 800] ------- [31:255 -1:255 28 0] [0x2 3 1 [36 0] [1 4]] (REQUEST)
s 1.010887176 _10_ RTR  --- 0 AODV 48 [0 ffffffff 15 800] ------- [10:255 -1:255 28 0] [0x2 3 1 [36 0] [1 4]] (REQUEST)
s 1.010984541 _34_ RTR  --- 0 AODV 48 [0 ffffffff 1 800] ------- [34:255 -1:255 29 0] [0x2 2 1 [36 0] [1 4]] (REQUEST)
s 1.011307537 _27_ RTR  --- 0 AODV 48 [0 ffffffff 15 800] ------- [27:255 -1:255 28 0] [0x2 3 1 [36 0] [1 4]] (REQUEST)
s 1.011862943 _20_ RTR  --- 0 AODV 48 [0 ffffffff 1 800] ------- [20:255 -1:255 29 0] [0x2 2 1 [36 0] [1 4]] (REQUEST)
s 1.012224907 _38_ RTR  --- 0 AODV 48 [0 ffffffff 1 800] ------- [38:255 -1:255 29 0] [0x2 2 1 [36 0] [1 4]] (REQUEST)
s 1.012256787 _19_ RTR  --- 0 AODV 48 [0 ffffffff 15 800] ------- [19:255 -1:255 28 0] [0x2 3 1 [36 0] [1 4]] (REQUEST)
r 1.012498971 _5_ RTR  --- 0 AODV 48 [0 ffffffff e 800] ------- [14:255 -1:255 29 0] [0x2 2 1 [36 0] [1 4]] (REQUEST)
r 1.012499138 _27_ RTR  --- 0 AODV 48 [0 ffffffff e 800] ------- [14:255 -1:255 29 0] [0x2 2 1 [36 0] [1 4]] (REQUEST)
r 1.012499148 _35_ RTR  --- 0 AODV 48 [0 ffffffff e 800] ------- [14:255 -1:255 29 0] [0x2 2 1 [36 0] [1 4]] (REQUEST)
r 1.012499160 _21_ RTR  --- 0 AODV 48 [0 ffffffff e 800] ------- [14:255 -1:255 29 0] [0x2 2 1 [36 0] [1 4]] (REQUEST)
r 1.012499197 _10_ RTR  --- 0 AODV 48 [0 ffffffff e 800] ------- [14:255 -1:255 29 0] [0x2 2 1 [36 0] [1 4]] (REQUEST)
r 1.012499228 _19_ RTR  --- 0 AODV 48 [0 ffffffff e 800] ------- [14:255 -1:255 29 0] [0x2 2 1 [36 0] [1 4]] (REQUEST)
r 1.012499275 _7_ RTR  --- 0 AODV 48 [0 ffffffff e 800] ------- [14:255 -1:255 29 0] [0x2 2 1 [36 0] [1 4]] (REQUEST)
r 1.012499293 _29_ RTR  --- 0 AODV 48 [0 ffffffff e 800] ------- [14:255 -1:255 29 0] [0x2 2 1 [36 0] [1 4]] (REQUEST)
r 1.012499300 _25_ RTR  --- 0 AODV 48 [0 ffffffff e 800] ------- [14:255 -1:255 29 0] [0x2 2 1 [36 0] [1 4]] (REQUEST)
r 1.012499322 _31_ RTR  --- 0 AODV 48 [0 ffffffff e 800] ------- [14:255 -1:255 29 0] [0x2 2 1 [36 0] [1 4]] (REQUEST)
r 1.012499324 _34_ RTR  --- 0 AODV 48 [0 ffffffff e 800] ------- [14:255 -1:255 29 0] [0x2 2 1 [36 0] [1 4]] (REQUEST)
r 1.012499330 _24_ RTR  --- 0 AODV 48 [0 ffffffff e 800] ------- [14:255 -1:255 29 0] [0x2 2 1 [36 0] [1 4]] (REQUEST)
r 1.012499398 _38_ RTR  --- 0 AODV 48 [0 ffffffff e 800] ------- [14:255 -1:255 29 0] [0x2 2 1 [36 0] [1 4]] (REQUEST)
r 1.012499482 _13_ RTR  --- 0 AODV 48 [0 ffffffff e 800] ------- [14:255 -1:255 29 0] [0x2 2 1 [36 0] [1 4]] (REQUEST)
r 1.012499500 _11_ RTR  --- 0 AODV 48 [0 ffffffff e 800] ------- [14:255 -1:255 29 0] [0x2 2 1 [36 0] [1 4]] (REQUEST)
r 1.012499591 _1_ RTR  --- 0 AODV 48 [0 ffffffff e 800] ------- [14:255 -1:255 29 0] [0x2 2 1 [36 0] [1 4]] (REQUEST)
r 1.012499622 _18_ RTR  --- 0 AODV 48 [0 ffffffff e 800] ------- [14:255 -1:255 29 0] [0x2 2 1 [36 0] [1 4]] (REQUEST)
r 1.012499625 _3_ RTR  --- 0 AODV 48 [0 ffffffff e 800] ------- [14:255 -1:255 29 0] [0x2 2 1 [36 0] [1 4]] (REQUEST)
s 1.012589917 _11_ RTR  --- 0 AODV 48 [0 ffffffff 1 800] ------- [11:255 -1:255 29 0] [0x2 2 26 [38 0] [1 54]] (REQUEST)
s 1.012974810 _16_ RTR  --- 0 AODV 48 [0 ffffffff 1 800] ------- [16:255 -1:255 29 0] [0x2 2 26 [38 0] [1 54]] (REQUEST)
s 1.013147985 _34_ RTR  --- 0 AODV 48 [0 ffffffff 1 800] ------- [34:255 -1:255 29 0] [0x2 2 26 [38 0] [1 54]] (REQUEST)
s 1.013196662 _29_ RTR  --- 0 AODV 48 [0 ffffffff 1 800] ------- [29:255 -1:255 29 0] [0x2 2 26 [38 0] [1 54]] (REQUEST)
s 1.013321985 _15_ RTR  --- 0 AODV 48 [0 ffffffff 1 800] ------- [15:255 -1:255 29 0] [0x2 2 1 [36 0] [1 4]] (REQUEST)
s 1.013704729 _3_ RTR  --- 0 AODV 48 [0 ffffffff 15 800] ------- [3:255 -1:255 28 0] [0x2 3 1 [36 0] [1 4]] (REQUEST)
s 1.014417168 _4_ RTR  --- 0 AODV 48 [0 ffffffff 15 800] ------- [4:255 -1:255 28 0] [0x2 3 1 [36 0] [1 4]] (REQUEST)
r 1.014908964 _24_ RTR  --- 0 AODV 48 [0 ffffffff 1f 800] ------- [31:255 -1:255 28 0] [0x2 3 1 [36 0] [1 4]] (REQUEST)
r 1.014909060 _13_ RTR  --- 0 AODV 48 [0 ffffffff 1f 800] ------- [31:255 -1:255 28 0] [0x2 3 1 [36 0] [1 4]] (REQUEST)
s 1.015092485 _7_ RTR  --- 0 AODV 48 [0 ffffffff 1 800] ------- [7:255 -1:255 29 0] [0x2 2 26 [38 0] [1 54]] (REQUEST)
s 1.015291694 _5_ RTR  --- 0 AODV 48 [0 ffffffff 1 800] ------- [5:255 -1:255 29 0] [0x2 2 26 [38 0] [1 54]] (REQUEST)
s 1.016604359 _20_ RTR  --- 0 AODV 48 [0 ffffffff 1 800] ------- [20:255 -1:255 29 0] [0x2 2 26 [38 0] [1 54]] (REQUEST)
s 1.017197043 _13_ RTR  --- 0 AODV 48 [0 ffffffff 15 800] ------- [13:255 -1:255 28 0] [0x2 3 1 [36 0] [1 4]] (REQUEST)
r 1.017379304 _37_ RTR  --- 0 AODV 48 [0 ffffffff 4 800] ------- [4:255 -1:255 28 0] [0x2 3 1 [36 0] [1 4]] (REQUEST)
r 1.017379339 _26_ RTR  --- 0 AODV 48 [0 ffffffff 4 800] ------- [4:255 -1:255 28 0] [0x2 3 1 [36 0] [1 4]] (REQUEST)
r 1.017379387 _36_ RTR  --- 0 AODV 48 [0 ffffffff 4 800] ------- [4:255 -1:255 28 0] [0x2 3 1 [36 0] [1 4]] (REQUEST)
s 1.017379387 _36_ RTR  --- 0 AODV 44 [0 0 0 0] ------- [36:255 1:255 30 4] [0x4 1 [36 4] 10.000000] (REPLY)
r 1.017379521 _18_ RTR  --- 0 AODV 48 [0 ffffffff 4 800] ------- [4:255 -1:255 28 0] [0x2 3 1 [36 0] [1 4]] (REQUEST)
r 1.017379689 _28_ RTR  --- 0 AODV 48 [0 ffffffff 4 800] ------- [4:255 -1:255 28 0] [0x2 3 1 [36 0] [1 4]] (REQUEST)
r 1.017423813 _17_ RTR  --- 0 AODV 48 [0 ffffffff f 800] ------- [15:255 -1:255 29 0] [0x2 2 26 [38 0] [1 54]] (REQUEST)
r 1.017423854 _8_ RTR  --- 0 AODV 48 [0 ffffffff f 800] ------- [15:255 -1:255 29 0] [0x2 2 26 [38 0] [1 54]] (REQUEST)
r 1.017423883 _0_ RTR  --- 0 AODV 48 [0 ffffffff f 800] ------- [15:255 -1:255 29 0] [0x2 2 26 [38 0] [1 54]] (REQUEST)
r 1.017423889 _20_ RTR  --- 0 AODV 48 [0 ffffffff f 800] ------- [15:255 -1:255 29 0] [0x2 2 26 [38 0] [1 54]] (REQUEST)
r 1.017423922 _16_ RTR  --- 0 AODV 48 [0 ffffffff f 800] ------- [15:255 -1:255 29 0] [0x2 2 26 [38 0] [1 54]] (REQUEST)
r 1.017424021 _6_ RTR  --- 0 AODV 48 [0 ffffffff f 800] ------- [15:255 -1:255 29 0] [0x2 2 26 [38 0] [1 54]] (REQUEST)
r 1.017458960 _27_ RTR  --- 0 AODV 48 [0 ffffffff 13 800] ------- [19:255 -1:255 28 0] [0x2 3 1 [36 0] [1 4]] (REQUEST)
r 1.017459046 _5_ RTR  --- 0 AODV 48 [0 ffffffff 13 800] ------- [19:255 -1:255 28 0] [0x2 3 1 [36 0] [1 4]] (REQUEST)
r 1.017459169 _14_ RTR  --- 0 AODV 48 [0 ffffffff 13 800] ------- [19:255 -1:255 28 0] [0x2 3 1 [36 0] [1 4]] (REQUEST)
r 1.017459242 _35_ RTR  --- 0 AODV 48 [0 ffffffff 13 800] ------- [19:255 -1:255 28 0] [0x2 3 1 [36 0] [1 4]] (REQUEST)
s 1.017512806 _25_ RTR  --- 0 AODV 48 [0 ffffffff 1 800] ------- [25:255 -1:255 29 0] [0x2 2 26 [38 0] [1 54]] (REQUEST)
s 1.018335570 _24_ RTR  --- 0 AODV 48 [0 ffffffff 15 800] ------- [24:255 -1:255 28 0] [0x2 3 1 [36 0] [1 4]] (REQUEST)
s 1.018414047 _18_ RTR  --- 0 AODV 48 [0 ffffffff 15 800] ------- [18:255 -1:255 28 0] [0x2 3 1 [36 0] [1 4]] (REQUEST)
s 1.019651918 _33_ RTR  --- 0 AODV 48 [0 ffffffff 15 800] ------- [33:255 -1:255 28 0] [0x2 3 1 [36 0] [1 4]] (REQUEST)
r 1.019737400 _31_ RTR  --- 0 AODV 48 [0 ffffffff a 800] ------- [10:255 -1:255 28 0] [0x2 3 1 [36 0] [1 4]] (REQUEST)
r 1.019737463 _24_ RTR  --- 0 AODV 48 [0 ffffffff a 800] ------- [10:255 -1:255 28 0] [0x2 3 1 [36 0] [1 4]] (REQUEST)
r 1.019834583 _25_ RTR  --- 0 AODV 48 [0 ffffffff 22 800] ------- [34:255 -1:255 29 0] [0x2 2 1 [36 0] [1 4]] (REQUEST)
r 1.019834697 _29_ RTR  --- 0 AODV 48 [0 ffffffff 22 800] ------- [34:255 -1:255 29 0] [0x2 2 1 [36 0] [1 4]] (REQUEST)
r 1.019926670 _3_ RTR  --- 0 AODV 48 [0 ffffffff b 800] ------- [11:255 -1:255 29 0] [0x2 2 1 [36 0] [1 4]] (REQUEST)
r 1.019926715 _33_ RTR  --- 0 AODV 48 [0 ffffffff b 800] ------- [11:255 -1:255 29 0] [0x2 2 1 [36 0] [1 4]] (REQUEST)
s 1.020433229 _26_ RTR  --- 0 AODV 48 [0 ffffffff 4 800] ------- [26:255 -1:255 27 0] [0x2 4 1 [36 0] [1 4]] (REQUEST)
s 1.020686243 _28_ RTR  --- 0 AODV 48 [0 ffffffff 4 800] ------- [28:255 -1:255 27 0] [0x2 4 1 [36 0] [1 4]] (REQUEST)
s 1.021162172 _17_ RTR  --- 0 AODV 48 [0 ffffffff f 800] ------- [17:255 -1:255 28 0] [0x2 3 26 [38 0] [1 54]] (REQUEST)
s 1.021702798 _0_ RTR  --- 0 AODV 48 [0 ffffffff f 800] ------- [0:255 -1:255 28 0] [0x2 3 26 [38 0] [1 54]] (REQUEST)
s 1.022543223 _37_ RTR  --- 0 AODV 48 [0 ffffffff 4 800] ------- [37:255 -1:255 27 0] [0x2 4 1 [36 0] [1 4]] (REQUEST)
s 1.022859820 _6_ RTR  --- 0 AODV 48 [0 ffffffff f 800] ------- [6:255 -1:255 28 0] [0x2 3 26 [38 0] [1 54]] (REQUEST)
r 1.024039317 _14_ RTR  --- 0 AODV 48 [0 ffffffff 5 800] ------- [5:255 -1:255 29 0] [0x2 2 26 [38 0] [1 54]] (REQUEST)
r 1.024039389 _27_ RTR  --- 0 AODV 48 [0 ffffffff 5 800] ------- [5:255 -1:255 29 0] [0x2 2 26 [38 0] [1 54]] (REQUEST)
r 1.024039451 _19_ RTR  --- 0 AODV 48 [0 ffffffff 5 800] ------- [5:255 -1:255 29 0] [0x2 2 26 [38 0] [1 54]] (REQUEST)
r 1.024039516 _35_ RTR  --- 0 AODV 48 [0 ffffffff 5 800] ------- [5:255 -1:255 29 0] [0x2 2 26 [38 0] [1 54]] (REQUEST)
r 1.024039585 _21_ RTR  --- 0 AODV 48 [0 ffffffff 5 800] ------- [5:255 -1:255 29 0] [0x2 2 26 [38 0] [1 54]] (REQUEST)
r 1.024039663 _10_ RTR  --- 0 AODV 48 [0 ffffffff 5 800] ------- [5:255 -1:255 29 0] [0x2 2 26 [38 0] [1 54]] (REQUEST)
r 1.024039698 _29_ RTR  --- 0 AODV 48 [0 ffffffff 5 800] ------- [5:255 -1:255 29 0] [0x2 2 26 [38 0] [1 54]] (REQUEST)
r 1.024039731 _7_ RTR  --- 0 AODV 48 [0 ffffffff 5 800] ------- [5:255 -1:255 29 0] [0x2 2 26 [38 0] [1 54]] (REQUEST)
r 1.024039741 _25_ RTR  --- 0 AODV 48 [0 ffffffff 5 800] ------- [5:255 -1:255 29 0] [0x2 2 26 [38 0] [1 54]] (REQUEST)
r 1.024039758 _34_ RTR  --- 0 AODV 48 [0 ffffffff 5 800] ------- [5:255 -1:255 29 0] [0x2 2 26 [38 0] [1 54]] (REQUEST)
r 1.024039759 _24_ RTR  --- 0 AODV 48 [0 ffffffff 5 800] ------- [5:255 -1:255 29 0] [0x2 2 26 [38 0] [1 54]] (REQUEST)
r 1.024039765 _31_ RTR  --- 0 AODV 48 [0 ffffffff 5 800] ------- [5:255 -1:255 29 0] [0x2 2 26 [38 0] [1 54]] (REQUEST)
r 1.024039839 _38_ RTR  --- 0 AODV 48 [0 ffffffff 5 800] ------- [5:255 -1:255 29 0] [0x2 2 26 [38 0] [1 54]] (REQUEST)
r 1.024039933 _13_ RTR  --- 0 AODV 48 [0 ffffffff 5 800] ------- [5:255 -1:255 29 0] [0x2 2 26 [38 0] [1 54]] (REQUEST)
r 1.024039955 _1_ RTR  --- 0 AODV 48 [0 ffffffff 5 800] ------- [5:255 -1:255 29 0] [0x2 2 26 [38 0] [1 54]] (REQUEST)
r 1.024039963 _11_ RTR  --- 0 AODV 48 [0 ffffffff 5 800] ------- [5:255 -1:255 29 0] [0x2 2 26 [38 0] [1 54]] (REQUEST)
s 1.024804747 _31_ RTR  --- 0 AODV 48 [0 ffffffff 5 800] ------- [31:255 -1:255 28 0] [0x2 3 26 [38 0] [1 54]] (REQUEST)
s 1.024890003 _35_ RTR  --- 0 AODV 48 [0 ffffffff 5 800] ------- [35:255 -1:255 28 0] [0x2 3 26 [38 0] [1 54]] (REQUEST)
s 1.025020607 _19_ RTR  --- 0 AODV 48 [0 ffffffff 5 800] ------- [19:255 -1:255 28 0] [0x2 3 26 [38 0] [1 54]] (REQUEST)
s 1.025193272 _8_ RTR  --- 0 AODV 48 [0 ffffffff f 800] ------- [8:255 -1:255 28 0] [0x2 3 26 [38 0] [1 54]] (REQUEST)
r 1.026261979 _3_ RTR  --- 0 AODV 48 [0 ffffffff 21 800] ------- [33:255 -1:255 28 0] [0x2 3 1 [36 0] [1 4]] (REQUEST)
r 1.026262166 _4_ RTR  --- 0 AODV 48 [0 ffffffff 21 800] ------- [33:255 -1:255 28 0] [0x2 3 1 [36 0] [1 4]] (REQUEST)
r 1.026262263 _37_ RTR  --- 0 AODV 48 [0 ffffffff 21 800] ------- [33:255 -1:255 28 0] [0x2 3 1 [36 0] [1 4]] (REQUEST)
r 1.026364332 _8_ RTR  --- 0 AODV 48 [0 ffffffff 11 800] ------- [17:255 -1:255 28 0] [0x2 3 26 [38 0] [1 54]] (REQUEST)
r 1.026364381 _6_ RTR  --- 0 AODV 48 [0 ffffffff 11 800] ------- [17:255 -1:255 28 0] [0x2 3 26 [38 0] [1 54]] (REQUEST)
r 1.026394583 _25_ RTR  --- 0 AODV 48 [0 ffffffff 22 800] ------- [34:255 -1:255 29 0] [0x2 2 26 [38 0] [1 54]] (REQUEST)
r 1.026394628 _38_ RTR  --- 0 AODV 48 [0 ffffffff 22 800] ------- [34:255 -1:255 29 0] [0x2 2 26 [38 0] [1 54]] (REQUEST)
r 1.026394696 _7_ RTR  --- 0 AODV 48 [0 ffffffff 22 800] ------- [34:255 -1:255 29 0] [0x2 2 26 [38 0] [1 54]] (REQUEST)
r 1.026394697 _29_ RTR  --- 0 AODV 48 [0 ffffffff 22 800] ------- [34:255 -1:255 29 0] [0x2 2 26 [38 0] [1 54]] (REQUEST)