n -t * -s 0  -x 0 -y 0 -Z 0 -z 20  -v circle -c green
n -t * -s 1  -x 125 -y 0 -Z 0 -z 20  -v circle -c green
n -t * -s 2  -x 250 -y 0 -Z 0 -z 20  -v circle -c green
n -t * -s 3  -x 375 -y 0 -Z 0 -z 20  -v circle -c green
n -t * -s 4  -x 500 -y 0 -Z 0 -z 20  -v circle -c green
n -t * -s 5  -x 625 -y 0 -Z 0 -z 20  -v circle -c green
n -t * -s 6  -x 750 -y 0 -Z 0 -z 20  -v circle -c green
n -t * -s 7  -x 875 -y 0 -Z 0 -z 20  -v circle -c green
n -t * -s 8  -x 1000 -y 0 -Z 0 -z 20  -v circle -c green
n -t * -s 9  -x 1125 -y 0 -Z 0 -z 20  -v circle -c green
n -t * -s 10  -x 0 -y 125 -Z 0 -z 20  -v circle -c green
n -t * -s 11  -x 125 -y 125 -Z 0 -z 20  -v circle -c green
n -t * -s 12  -x 250 -y 125 -Z 0 -z 20  -v circle -c green
n -t * -s 13  -x 375 -y 125 -Z 0 -z 20  -v circle -c green
n -t * -s 14  -x 500 -y 125 -Z 0 -z 20  -v circle -c green
n -t * -s 15  -x 625 -y 125 -Z 0 -z 20  -v circle -c green
n -t * -s 16  -x 750 -y 125 -Z 0 -z 20  -v circle -c green
n -t * -s 17  -x 875 -y 125 -Z 0 -z 20  -v circle -c green
n -t * -s 18  -x 1000 -y 125 -Z 0 -z 20  -v circle -c green
n -t * -s 19  -x 1125 -y 125 -Z 0 -z 20  -v circle -c green
n -t * -s 20  -x 0 -y 250 -Z 0 -z 20  -v circle -c green
n -t * -s 21  -x 125 -y 250 -Z 0 -z 20  -v circle -c green
n -t * -s 22  -x 250 -y 250 -Z 0 -z 20  -v circle -c green
n -t * -s 23  -x 375 -y 250 -Z 0 -z 20  -v circle -c green
n -t * -s 24  -x 500 -y 250 -Z 0 -z 20  -v circle -c green
n -t * -s 25  -x 625 -y 250 -Z 0 -z 20  -v circle -c green
n -t * -s 26  -x 750 -y 250 -Z 0 -z 20  -v circle -c green
n -t * -s 27  -x 875 -y 250 -Z 0 -z 20  -v circle -c green
n -t * -s 28  -x 1000 -y 250 -Z 0 -z 20  -v circle -c green
n -t * -s 29  -x 1125 -y 250 -Z 0 -z 20  -v circle -c green
n -t * -s 30  -x 0 -y 375 -Z 0 -z 20  -v circle -c green
n -t * -s 31  -x 125 -y 375 -Z 0 -z 20  -v circle -c green
n -t * -s 32  -x 250 -y 375 -Z 0 -z 20  -v circle -c green
n -t * -s 33  -x 375 -y 375 -Z 0 -z 20  -v circle -c green
n -t * -s 34  -x 500 -y 375 -Z 0 -z 20  -v circle -c green
n -t * -s 35  -x 625 -y 375 -Z 0 -z 20  -v circle -c green
n -t * -s 36  -x 750 -y 375 -Z 0 -z 20  -v circle -c green
n -t * -s 37  -x 875 -y 375 -Z 0 -z 20  -v circle -c green
n -t * -s 38  -x 1000 -y 375 -Z 0 -z 20  -v circle -c green
n -t * -s 39  -x 1125 -y 375 -Z 0 -z 20  -v circle -c green
V -t * -v 1.0a5 -a 0
W -t * -x 500 -y 500
A -t * -n 1 -p 0 -o 0x7fffffff -c 30 -a 1
A -t * -h 1 -m 1073741823 -s 0
+ -t 0.080671574 -s 1 -d -1 -p message -e 32 -c 2 -a 0 -i 0 -k RTR 
- -t 0.080671574 -s 1 -d -1 -p message -e 32 -c 2 -a 0 -i 0 -k RTR
h -t 0.080671574 -s 1 -d -1 -p message -e 32 -c 2 -a 0 -i 0 -k RTR
r -t 0.084721991 -s 0 -d -1 -p message -e 32 -c 2 -a 0 -i 0 -k RTR
r -t 0.084721991 -s 11 -d -1 -p message -e 32 -c 2 -a 0 -i 0 -k RTR
r -t 0.084721991 -s 2 -d -1 -p message -e 32 -c 2 -a 0 -i 0 -k RTR
r -t 0.084722164 -s 10 -d -1 -p message -e 32 -c 2 -a 0 -i 0 -k RTR
r -t 0.084722164 -s 12 -d -1 -p message -e 32 -c 2 -a 0 -i 0 -k RTR
r -t 0.084722408 -s 21 -d -1 -p message -e 32 -c 2 -a 0 -i 0 -k RTR
r -t 0.084722408 -s 3 -d -1 -p message -e 32 -c 2 -a 0 -i 0 -k RTR
+ -t 0.118169808 -s 6 -d -1 -p message -e 32 -c 2 -a 0 -i 1 -k RTR 
- -t 0.118169808 -s 6 -d -1 -p message -e 32 -c 2 -a 0 -i 1 -k RTR
h -t 0.118169808 -s 6 -d -1 -p message -e 32 -c 2 -a 0 -i 1 -k RTR
r -t 0.121900225 -s 5 -d -1 -p message -e 32 -c 2 -a 0 -i 1 -k RTR
r -t 0.121900225 -s 16 -d -1 -p message -e 32 -c 2 -a 0 -i 1 -k RTR
r -t 0.121900225 -s 7 -d -1 -p message -e 32 -c 2 -a 0 -i 1 -k RTR
r -t 0.121900398 -s 15 -d -1 -p message -e 32 -c 2 -a 0 -i 1 -k RTR
r -t 0.121900398 -s 17 -d -1 -p message -e 32 -c 2 -a 0 -i 1 -k RTR
r -t 0.121900642 -s 4 -d -1 -p message -e 32 -c 2 -a 0 -i 1 -k RTR
r -t 0.121900642 -s 26 -d -1 -p message -e 32 -c 2 -a 0 -i 1 -k RTR
r -t 0.121900642 -s 8 -d -1 -p message -e 32 -c 2 -a 0 -i 1 -k RTR
+ -t 0.136561445 -s 22 -d -1 -p message -e 32 -c 2 -a 0 -i 2 -k RTR 
- -t 0.136561445 -s 22 -d -1 -p message -e 32 -c 2 -a 0 -i 2 -k RTR
h -t 0.136561445 -s 22 -d -1 -p message -e 32 -c 2 -a 0 -i 2 -k RTR
r -t 0.139011862 -s 12 -d -1 -p message -e 32 -c 2 -a 0 -i 2 -k RTR
r -t 0.139011862 -s 21 -d -1 -p message -e 32 -c 2 -a 0 -i 2 -k RTR
r -t 0.139011862 -s 32 -d -1 -p message -e 32 -c 2 -a 0 -i 2 -k RTR
r -t 0.139011862 -s 23 -d -1 -p message -e 32 -c 2 -a 0 -i 2 -k RTR
r -t 0.139012035 -s 31 -d -1 -p message -e 32 -c 2 -a 0 -i 2 -k RTR
r -t 0.139012035 -s 11 -d -1 -p message -e 32 -c 2 -a 0 -i 2 -k RTR
r -t 0.139012035 -s 13 -d -1 -p message -e 32 -c 2 -a 0 -i 2 -k RTR
r -t 0.139012035 -s 33 -d -1 -p message -e 32 -c 2 -a 0 -i 2 -k RTR
r -t 0.139012279 -s 2 -d -1 -p message -e 32 -c 2 -a 0 -i 2 -k RTR
r -t 0.139012279 -s 20 -d -1 -p message -e 32 -c 2 -a 0 -i 2 -k RTR
r -t 0.139012279 -s 24 -d -1 -p message -e 32 -c 2 -a 0 -i 2 -k RTR
+ -t 0.313126268 -s 18 -d -1 -p message -e 32 -c 2 -a 0 -i 3 -k RTR 
- -t 0.313126268 -s 18 -d -1 -p message -e 32 -c 2 -a 0 -i 3 -k RTR
h -t 0.313126268 -s 18 -d -1 -p message -e 32 -c 2 -a 0 -i 3 -k RTR
r -t 0.317816685 -s 8 -d -1 -p message -e 32 -c 2 -a 0 -i 3 -k RTR
r -t 0.317816685 -s 17 -d -1 -p message -e 32 -c 2 -a 0 -i 3 -k RTR
r -t 0.317816685 -s 28 -d -1 -p message -e 32 -c 2 -a 0 -i 3 -k RTR
r -t 0.317816685 -s 19 -d -1 -p message -e 32 -c 2 -a 0 -i 3 -k RTR
r -t 0.317816858 -s 27 -d -1 -p message -e 32 -c 2 -a 0 -i 3 -k RTR
r -t 0.317816858 -s 7 -d -1 -p message -e 32 -c 2 -a 0 -i 3 -k RTR
r -t 0.317816858 -s 9 -d -1 -p message -e 32 -c 2 -a 0 -i 3 -k RTR
r -t 0.317816858 -s 29 -d -1 -p message -e 32 -c 2 -a 0 -i 3 -k RTR
r -t 0.317817102 -s 16 -d -1 -p message -e 32 -c 2 -a 0 -i 3 -k RTR
r -t 0.317817102 -s 38 -d -1 -p message -e 32 -c 2 -a 0 -i 3 -k RTR
+ -t 0.328015452 -s 33 -d -1 -p message -e 32 -c 2 -a 0 -i 4 -k RTR 
- -t 0.328015452 -s 33 -d -1 -p message -e 32 -c 2 -a 0 -i 4 -k RTR
h -t 0.328015452 -s 33 -d -1 -p message -e 32 -c 2 -a 0 -i 4 -k RTR
r -t 0.332065869 -s 23 -d -1 -p message -e 32 -c 2 -a 0 -i 4 -k RTR
r -t 0.332065869 -s 32 -d -1 -p message -e 32 -c 2 -a 0 -i 4 -k RTR
r -t 0.332065869 -s 34 -d -1 -p message -e 32 -c 2 -a 0 -i 4 -k RTR
r -t 0.332066041 -s 22 -d -1 -p message -e 32 -c 2 -a 0 -i 4 -k RTR
r -t 0.332066041 -s 24 -d -1 -p message -e 32 -c 2 -a 0 -i 4 -k RTR
r -t 0.332066285 -s 13 -d -1 -p message -e 32 -c 2 -a 0 -i 4 -k RTR
r -t 0.332066285 -s 31 -d -1 -p message -e 32 -c 2 -a 0 -i 4 -k RTR
r -t 0.332066285 -s 35 -d -1 -p message -e 32 -c 2 -a 0 -i 4 -k RTR
+ -t 0.417199696 -s 30 -d -1 -p message -e 32 -c 2 -a 0 -i 5 -k RTR 
- -t 0.417199696 -s 30 -d -1 -p message -e 32 -c 2 -a 0 -i 5 -k RTR
h -t 0.417199696 -s 30 -d -1 -p message -e 32 -c 2 -a 0 -i 5 -k RTR
r -t 0.420930113 -s 20 -d -1 -p message -e 32 -c 2 -a 0 -i 5 -k RTR
r -t 0.420930113 -s 31 -d -1 -p message -e 32 -c 2 -a 0 -i 5 -k RTR
r -t 0.420930285 -s 21 -d -1 -p message -e 32 -c 2 -a 0 -i 5 -k RTR
r -t 0.420930529 -s 10 -d -1 -p message -e 32 -c 2 -a 0 -i 5 -k RTR
r -t 0.420930529 -s 32 -d -1 -p message -e 32 -c 2 -a 0 -i 5 -k RTR
+ -t 0.457831686 -s 4 -d -1 -p message -e 32 -c 2 -a 0 -i 6 -k RTR 
- -t 0.457831686 -s 4 -d -1 -p message -e 32 -c 2 -a 0 -i 6 -k RTR
h -t 0.457831686 -s 4 -d -1 -p message -e 32 -c 2 -a 0 -i 6 -k RTR
r -t 0.462522103 -s 3 -d -1 -p message -e 32 -c 2 -a 0 -i 6 -k RTR
r -t 0.462522103 -s 14 -d -1 -p message -e 32 -c 2 -a 0 -i 6 -k RTR
r -t 0.462522103 -s 5 -d -1 -p message -e 32 -c 2 -a 0 -i 6 -k RTR
r -t 0.462522275 -s 13 -d -1 -p message -e 32 -c 2 -a 0 -i 6 -k RTR
r -t 0.462522275 -s 15 -d -1 -p message -e 32 -c 2 -a 0 -i 6 -k RTR
r -t 0.462522519 -s 2 -d -1 -p message -e 32 -c 2 -a 0 -i 6 -k RTR
r -t 0.462522519 -s 24 -d -1 -p message -e 32 -c 2 -a 0 -i 6 -k RTR
r -t 0.462522519 -s 6 -d -1 -p message -e 32 -c 2 -a 0 -i 6 -k RTR
+ -t 0.466527473 -s 11 -d -1 -p message -e 32 -c 2 -a 0 -i 7 -k RTR 
- -t 0.466527473 -s 11 -d -1 -p message -e 32 -c 2 -a 0 -i 7 -k RTR
h -t 0.466527473 -s 11 -d -1 -p message -e 32 -c 2 -a 0 -i 7 -k RTR
r -t 0.469937889 -s 1 -d -1 -p message -e 32 -c 2 -a 0 -i 7 -k RTR
r -t 0.469937889 -s 10 -d -1 -p message -e 32 -c 2 -a 0 -i 7 -k RTR
r -t 0.469937889 -s 21 -d -1 -p message -e 32 -c 2 -a 0 -i 7 -k RTR
r -t 0.469937889 -s 12 -d -1 -p message -e 32 -c 2 -a 0 -i 7 -k RTR
r -t 0.469938062 -s 20 -d -1 -p message -e 32 -c 2 -a 0 -i 7 -k RTR
r -t 0.469938062 -s 0 -d -1 -p message -e 32 -c 2 -a 0 -i 7 -k RTR
r -t 0.469938062 -s 2 -d -1 -p message -e 32 -c 2 -a 0 -i 7 -k RTR
r -t 0.469938062 -s 22 -d -1 -p message -e 32 -c 2 -a 0 -i 7 -k RTR
r -t 0.469938306 -s 31 -d -1 -p message -e 32 -c 2 -a 0 -i 7 -k RTR
r -t 0.469938306 -s 13 -d -1 -p message -e 32 -c 2 -a 0 -i 7 -k RTR
+ -t 0.526482483 -s 27 -d -1 -p message -e 32 -c 2 -a 0 -i 8 -k RTR 
- -t 0.526482483 -s 27 -d -1 -p message -e 32 -c 2 -a 0 -i 8 -k RTR
h -t 0.526482483 -s 27 -d -1 -p message -e 32 -c 2 -a 0 -i 8 -k RTR
r -t 0.529252900 -s 17 -d -1 -p message -e 32 -c 2 -a 0 -i 8 -k RTR
r -t 0.529252900 -s 26 -d -1 -p message -e 32 -c 2 -a 0 -i 8 -k RTR
r -t 0.529252900 -s 37 -d -1 -p message -e 32 -c 2 -a 0 -i 8 -k RTR
r -t 0.529252900 -s 28 -d -1 -p message -e 32 -c 2 -a 0 -i 8 -k RTR
r -t 0.529253073 -s 36 -d -1 -p message -e 32 -c 2 -a 0 -i 8 -k RTR
r -t 0.529253073 -s 16 -d -1 -p message -e 32 -c 2 -a 0 -i 8 -k RTR
r -t 0.529253073 -s 18 -d -1 -p message -e 32 -c 2 -a 0 -i 8 -k RTR
r -t 0.529253073 -s 38 -d -1 -p message -e 32 -c 2 -a 0 -i 8 -k RTR
r -t 0.529253317 -s 7 -d -1 -p message -e 32 -c 2 -a 0 -i 8 -k RTR
r -t 0.529253317 -s 25 -d -1 -p message -e 32 -c 2 -a 0 -i 8 -k RTR
r -t 0.529253317 -s 29 -d -1 -p message -e 32 -c 2 -a 0 -i 8 -k RTR
+ -t 0.534269246 -s 34 -d -1 -p message -e 32 -c 2 -a 0 -i 9 -k RTR 
- -t 0.534269246 -s 34 -d -1 -p message -e 32 -c 2 -a 0 -i 9 -k RTR
h -t 0.534269246 -s 34 -d -1 -p message -e 32 -c 2 -a 0 -i 9 -k RTR
r -t 0.538639662 -s 24 -d -1 -p message -e 32 -c 2 -a 0 -i 9 -k RTR
r -t 0.538639662 -s 33 -d -1 -p message -e 32 -c 2 -a 0 -i 9 -k RTR
r -t 0.538639662 -s 35 -d -1 -p message -e 32 -c 2 -a 0 -i 9 -k RTR
r -t 0.538639835 -s 23 -d -1 -p message -e 32 -c 2 -a 0 -i 9 -k RTR
r -t 0.538639835 -s 25 -d -1 -p message -e 32 -c 2 -a 0 -i 9 -k RTR
r -t 0.538640079 -s 14 -d -1 -p message -e 32 -c 2 -a 0 -i 9 -k RTR
r -t 0.538640079 -s 32 -d -1 -p message -e 32 -c 2 -a 0 -i 9 -k RTR
r -t 0.538640079 -s 36 -d -1 -p message -e 32 -c 2 -a 0 -i 9 -k RTR
+ -t 0.561056360 -s 39 -d -1 -p message -e 32 -c 2 -a 0 -i 10 -k RTR 
- -t 0.561056360 -s 39 -d -1 -p message -e 32 -c 2 -a 0 -i 10 -k RTR
h -t 0.561056360 -s 39 -d -1 -p message -e 32 -c 2 -a 0 -i 10 -k RTR
r -t 0.564786777 -s 29 -d -1 -p message -e 32 -c 2 -a 0 -i 10 -k RTR
r -t 0.564786777 -s 38 -d -1 -p message -e 32 -c 2 -a 0 -i 10 -k RTR
r -t 0.564786949 -s 28 -d -1 -p message -e 32 -c 2 -a 0 -i 10 -k RTR
r -t 0.564787193 -s 19 -d -1 -p message -e 32 -c 2 -a 0 -i 10 -k RTR
r -t 0.564787193 -s 37 -d -1 -p message -e 32 -c 2 -a 0 -i 10 -k RTR
+ -t 0.684797127 -s 7 -d -1 -p message -e 32 -c 2 -a 0 -i 11 -k RTR 
- -t 0.684797127 -s 7 -d -1 -p message -e 32 -c 2 -a 0 -i 11 -k RTR
h -t 0.684797127 -s 7 -d -1 -p message -e 32 -c 2 -a 0 -i 11 -k RTR
r -t 0.687247543 -s 6 -d -1 -p message -e 32 -c 2 -a 0 -i 11 -k RTR
r -t 0.687247543 -s 17 -d -1 -p message -e 32 -c 2 -a 0 -i 11 -k RTR
r -t 0.687247543 -s 8 -d -1 -p message -e 32 -c 2 -a 0 -i 11 -k RTR
r -t 0.687247716 -s 16 -d -1 -p message -e 32 -c 2 -a 0 -i 11 -k RTR
r -t 0.687247716 -s 18 -d -1 -p message -e 32 -c 2 -a 0 -i 11 -k RTR
r -t 0.687247960 -s 5 -d -1 -p message -e 32 -c 2 -a 0 -i 11 -k RTR
r -t 0.687247960 -s 27 -d -1 -p message -e 32 -c 2 -a 0 -i 11 -k RTR
r -t 0.687247960 -s 9 -d -1 -p message -e 32 -c 2 -a 0 -i 11 -k RTR
+ -t 0.764173693 -s 35 -d -1 -p message -e 32 -c 2 -a 0 -i 12 -k RTR 
- -t 0.764173693 -s 35 -d -1 -p message -e 32 -c 2 -a 0 -i 12 -k RTR
h -t 0.764173693 -s 35 -d -1 -p message -e 32 -c 2 -a 0 -i 12 -k RTR
r -t 0.768544109 -s 25 -d -1 -p message -e 32 -c 2 -a 0 -i 12 -k RTR
r -t 0.768544109 -s 34 -d -1 -p message -e 32 -c 2 -a 0 -i 12 -k RTR
r -t 0.768544109 -s 36 -d -1 -p message -e 32 -c 2 -a 0 -i 12 -k RTR
r -t 0.768544282 -s 24 -d -1 -p message -e 32 -c 2 -a 0 -i 12 -k RTR
r -t 0.768544282 -s 26 -d -1 -p message -e 32 -c 2 -a 0 -i 12 -k RTR
r -t 0.768544526 -s 15 -d -1 -p message -e 32 -c 2 -a 0 -i 12 -k RTR
r -t 0.768544526 -s 33 -d -1 -p message -e 32 -c 2 -a 0 -i 12 -k RTR
r -t 0.768544526 -s 37 -d -1 -p message -e 32 -c 2 -a 0 -i 12 -k RTR
+ -t 0.875803877 -s 10 -d -1 -p message -e 32 -c 2 -a 0 -i 13 -k RTR 
- -t 0.875803877 -s 10 -d -1 -p message -e 32 -c 2 -a 0 -i 13 -k RTR
h -t 0.875803877 -s 10 -d -1 -p message -e 32 -c 2 -a 0 -i 13 -k RTR
r -t 0.878254294 -s 0 -d -1 -p message -e 32 -c 2 -a 0 -i 13 -k RTR
r -t 0.878254294 -s 20 -d -1 -p message -e 32 -c 2 -a 0 -i 13 -k RTR
r -t 0.878254294 -s 11 -d -1 -p message -e 32 -c 2 -a 0 -i 13 -k RTR
r -t 0.878254466 -s 1 -d -1 -p message -e 32 -c 2 -a 0 -i 13 -k RTR
r -t 0.878254466 -s 21 -d -1 -p message -e 32 -c 2 -a 0 -i 13 -k RTR
r -t 0.878254710 -s 30 -d -1 -p message -e 32 -c 2 -a 0 -i 13 -k RTR
r -t 0.878254710 -s 12 -d -1 -p message -e 32 -c 2 -a 0 -i 13 -k RTR
+ -t 0.884084341 -s 12 -d -1 -p message -e 32 -c 2 -a 0 -i 14 -k RTR 
- -t 0.884084341 -s 12 -d -1 -p message -e 32 -c 2 -a 0 -i 14 -k RTR
h -t 0.884084341 -s 12 -d -1 -p message -e 32 -c 2 -a 0 -i 14 -k RTR
r -t 0.886534758 -s 2 -d -1 -p message -e 32 -c 2 -a 0 -i 14 -k RTR
r -t 0.886534758 -s 11 -d -1 -p message -e 32 -c 2 -a 0 -i 14 -k RTR
r -t 0.886534758 -s 22 -d -1 -p message -e 32 -c 2 -a 0 -i 14 -k RTR
r -t 0.886534758 -s 13 -d -1 -p message -e 32 -c 2 -a 0 -i 14 -k RTR
r -t 0.886534931 -s 21 -d -1 -p message -e 32 -c 2 -a 0 -i 14 -k RTR
r -t 0.886534931 -s 1 -d -1 -p message -e 32 -c 2 -a 0 -i 14 -k RTR
r -t 0.886534931 -s 3 -d -1 -p message -e 32 -c 2 -a 0 -i 14 -k RTR
r -t 0.886534931 -s 23 -d -1 -p message -e 32 -c 2 -a 0 -i 14 -k RTR
r -t 0.886535175 -s 10 -d -1 -p message -e 32 -c 2 -a 0 -i 14 -k RTR
r -t 0.886535175 -s 32 -d -1 -p message -e 32 -c 2 -a 0 -i 14 -k RTR
r -t 0.886535175 -s 14 -d -1 -p message -e 32 -c 2 -a 0 -i 14 -k RTR
+ -t 0.924998535 -s 14 -d -1 -p message -e 32 -c 2 -a 0 -i 15 -k RTR 
- -t 0.924998535 -s 14 -d -1 -p message -e 32 -c 2 -a 0 -i 15 -k RTR
h -t 0.924998535 -s 14 -d -1 -p message -e 32 -c 2 -a 0 -i 15 -k RTR
r -t 0.928408952 -s 4 -d -1 -p message -e 32 -c 2 -a 0 -i 15 -k RTR
r -t 0.928408952 -s 13 -d -1 -p message -e 32 -c 2 -a 0 -i 15 -k RTR
r -t 0.928408952 -s 24 -d -1 -p message -e 32 -c 2 -a 0 -i 15 -k RTR
r -t 0.928408952 -s 15 -d -1 -p message -e 32 -c 2 -a 0 -i 15 -k RTR
r -t 0.928409124 -s 23 -d -1 -p message -e 32 -c 2 -a 0 -i 15 -k RTR
r -t 0.928409124 -s 3 -d -1 -p message -e 32 -c 2 -a 0 -i 15 -k RTR
r -t 0.928409124 -s 5 -d -1 -p message -e 32 -c 2 -a 0 -i 15 -k RTR
r -t 0.928409124 -s 25 -d -1 -p message -e 32 -c 2 -a 0 -i 15 -k RTR
r -t 0.928409368 -s 12 -d -1 -p message -e 32 -c 2 -a 0 -i 15 -k RTR
r -t 0.928409368 -s 34 -d -1 -p message -e 32 -c 2 -a 0 -i 15 -k RTR
r -t 0.928409368 -s 16 -d -1 -p message -e 32 -c 2 -a 0 -i 15 -k RTR
+ -t 0.961796440 -s 28 -d -1 -p message -e 32 -c 2 -a 0 -i 16 -k RTR 
- -t 0.961796440 -s 28 -d -1 -p message -e 32 -c 2 -a 0 -i 16 -k RTR
h -t 0.961796440 -s 28 -d -1 -p message -e 32 -c 2 -a 0 -i 16 -k RTR
r -t 0.966486857 -s 18 -d -1 -p message -e 32 -c 2 -a 0 -i 16 -k RTR
r -t 0.966486857 -s 27 -d -1 -p message -e 32 -c 2 -a 0 -i 16 -k RTR
r -t 0.966486857 -s 38 -d -1 -p message -e 32 -c 2 -a 0 -i 16 -k RTR
r -t 0.966486857 -s 29 -d -1 -p message -e 32 -c 2 -a 0 -i 16 -k RTR
r -t 0.966487029 -s 37 -d -1 -p message -e 32 -c 2 -a 0 -i 16 -k RTR
r -t 0.966487029 -s 17 -d -1 -p message -e 32 -c 2 -a 0 -i 16 -k RTR
r -t 0.966487029 -s 19 -d -1 -p message -e 32 -c 2 -a 0 -i 16 -k RTR
r -t 0.966487029 -s 39 -d -1 -p message -e 32 -c 2 -a 0 -i 16 -k RTR
r -t 0.966487273 -s 8 -d -1 -p message -e 32 -c 2 -a 0 -i 16 -k RTR
r -t 0.966487273 -s 26 -d -1 -p message -e 32 -c 2 -a 0 -i 16 -k RTR
+ -t 1.000000000 -s 2 -d -1 -p tcp -e 40 -c 2 -a 0 -i 17 -k AGT 
- -t 1.000000000 -s 2 -d -1 -p tcp -e 40 -c 2 -a 0 -i 17 -k AGT
h -t 1.000000000 -s 2 -d -1 -p tcp -e 40 -c 2 -a 0 -i 17 -k AGT
+ -t 1.000000000 -s 5 -d -1 -p tcp -e 40 -c 2 -a 0 -i 18 -k AGT 
- -t 1.000000000 -s 5 -d -1 -p tcp -e 40 -c 2 -a 0 -i 18 -k AGT
h -t 1.000000000 -s 5 -d -1 -p tcp -e 40 -c 2 -a 0 -i 18 -k AGT
+ -t 1.000000000 -s 5 -d -1 -p tcp -e 40 -c 2 -a 0 -i 19 -k AGT 
- -t 1.000000000 -s 5 -d -1 -p tcp -e 40 -c 2 -a 0 -i 19 -k AGT
h -t 1.000000000 -s 5 -d -1 -p tcp -e 40 -c 2 -a 0 -i 19 -k AGT
+ -t 1.000000000 -s 19 -d -1 -p tcp -e 40 -c 2 -a 0 -i 20 -k AGT 
- -t 1.000000000 -s 19 -d -1 -p tcp -e 40 -c 2 -a 0 -i 20 -k AGT
h -t 1.000000000 -s 19 -d -1 -p tcp -e 40 -c 2 -a 0 -i 20 -k AGT
+ -t 1.000000000 -s 26 -d -1 -p tcp -e 40 -c 2 -a 0 -i 21 -k AGT 
- -t 1.000000000 -s 26 -d -1 -p tcp -e 40 -c 2 -a 0 -i 21 -k AGT
h -t 1.000000000 -s 26 -d -1 -p tcp -e 40 -c 2 -a 0 -i 21 -k AGT
+ -t 1.000000000 -s 26 -d 35 -p tcp -e 60 -c 2 -a 0 -i 21 -k RTR 
- -t 1.000000000 -s 26 -d 35 -p tcp -e 60 -c 2 -a 0 -i 21 -k RTR
h -t 1.000000000 -s 26 -d 35 -p tcp -e 60 -c 2 -a 0 -i 21 -k RTR
+ -t 1.000000000 -s 38 -d -1 -p tcp -e 40 -c 2 -a 0 -i 22 -k AGT 
- -t 1.000000000 -s 38 -d -1 -p tcp -e 40 -c 2 -a 0 -i 22 -k AGT
h -t 1.000000000 -s 38 -d -1 -p tcp -e 40 -c 2 -a 0 -i 22 -k AGT
+ -t 1.000000000 -s 37 -d -1 -p tcp -e 40 -c 2 -a 0 -i 23 -k AGT 
- -t 1.000000000 -s 37 -d -1 -p tcp -e 40 -c 2 -a 0 -i 23 -k AGT
h -t 1.000000000 -s 37 -d -1 -p tcp -e 40 -c 2 -a 0 -i 23 -k AGT
+ -t 1.000000000 -s 10 -d -1 -p tcp -e 40 -c 2 -a 0 -i 24 -k AGT 
- -t 1.000000000 -s 10 -d -1 -p tcp -e 40 -c 2 -a 0 -i 24 -k AGT
h -t 1.000000000 -s 10 -d -1 -p tcp -e 40 -c 2 -a 0 -i 24 -k AGT
+ -t 1.000000000 -s 31 -d -1 -p tcp -e 40 -c 2 -a 0 -i 25 -k AGT 
- -t 1.000000000 -s 31 -d -1 -p tcp -e 40 -c 2 -a 0 -i 25 -k AGT
h -t 1.000000000 -s 31 -d -1 -p tcp -e 40 -c 2 -a 0 -i 25 -k AGT
+ -t 1.000000000 -s 31 -d 22 -p tcp -e 60 -c 2 -a 0 -i 25 -k RTR 
- -t 1.000000000 -s 31 -d 22 -p tcp -e 60 -c 2 -a 0 -i 25 -k RTR
h -t 1.000000000 -s 31 -d 22 -p tcp -e 60 -c 2 -a 0 -i 25 -k RTR
+ -t 1.000000000 -s 33 -d -1 -p tcp -e 40 -c 2 -a 0 -i 26 -k AGT 
- -t 1.000000000 -s 33 -d -1 -p tcp -e 40 -c 2 -a 0 -i 26 -k AGT
h -t 1.000000000 -s 33 -d -1 -p tcp -e 40 -c 2 -a 0 -i 26 -k AGT
+ -t 1.000000000 -s 33 -d 22 -p tcp -e 60 -c 2 -a 0 -i 26 -k RTR 
- -t 1.000000000 -s 33 -d 22 -p tcp -e 60 -c 2 -a 0 -i 26 -k RTR
h -t 1.000000000 -s 33 -d 22 -p tcp -e 60 -c 2 -a 0 -i 26 -k RTR
+ -t 1.000000000 -s 15 -d -1 -p tcp -e 40 -c 2 -a 0 -i 27 -k AGT 
- -t 1.000000000 -s 15 -d -1 -p tcp -e 40 -c 2 -a 0 -i 27 -k AGT
h -t 1.000000000 -s 15 -d -1 -p tcp -e 40 -c 2 -a 0 -i 27 -k AGT
+ -t 1.000000000 -s 2 -d -1 -p tcp -e 40 -c 2 -a 0 -i 28 -k AGT 
- -t 1.000000000 -s 2 -d -1 -p tcp -e 40 -c 2 -a 0 -i 28 -k AGT
h -t 1.000000000 -s 2 -d -1 -p tcp -e 40 -c 2 -a 0 -i 28 -k AGT
+ -t 1.000000000 -s 26 -d -1 -p tcp -e 40 -c 2 -a 0 -i 29 -k AGT 
- -t 1.000000000 -s 26 -d -1 -p tcp -e 40 -c 2 -a 0 -i 29 -k AGT
h -t 1.000000000 -s 26 -d -1 -p tcp -e 40 -c 2 -a 0 -i 29 -k AGT
+ -t 1.000000000 -s 16 -d -1 -p tcp -e 40 -c 2 -a 0 -i 30 -k AGT 
- -t 1.000000000 -s 16 -d -1 -p tcp -e 40 -c 2 -a 0 -i 30 -k AGT
h -t 1.000000000 -s 16 -d -1 -p tcp -e 40 -c 2 -a 0 -i 30 -k AGT
+ -t 1.000000000 -s 20 -d -1 -p tcp -e 40 -c 2 -a 0 -i 31 -k AGT 
- -t 1.000000000 -s 20 -d -1 -p tcp -e 40 -c 2 -a 0 -i 31 -k AGT
h -t 1.000000000 -s 20 -d -1 -p tcp -e 40 -c 2 -a 0 -i 31 -k AGT
+ -t 1.000000000 -s 20 -d 11 -p tcp -e 60 -c 2 -a 0 -i 31 -k RTR 
- -t 1.000000000 -s 20 -d 11 -p tcp -e 60 -c 2 -a 0 -i 31 -k RTR
h -t 1.000000000 -s 20 -d 11 -p tcp -e 60 -c 2 -a 0 -i 31 -k RTR
+ -t 1.000000000 -s 31 -d -1 -p tcp -e 40 -c 2 -a 0 -i 32 -k AGT 
- -t 1.000000000 -s 31 -d -1 -p tcp -e 40 -c 2 -a 0 -i 32 -k AGT
h -t 1.000000000 -s 31 -d -1 -p tcp -e 40 -c 2 -a 0 -i 32 -k AGT
+ -t 1.000000000 -s 38 -d -1 -p tcp -e 40 -c 2 -a 0 -i 33 -k AGT 
- -t 1.000000000 -s 38 -d -1 -p tcp -e 40 -c 2 -a 0 -i 33 -k AGT
h -t 1.000000000 -s 38 -d -1 -p tcp -e 40 -c 2 -a 0 -i 33 -k AGT
+ -t 1.000000000 -s 3 -d -1 -p tcp -e 40 -c 2 -a 0 -i 34 -k AGT 
- -t 1.000000000 -s 3 -d -1 -p tcp -e 40 -c 2 -a 0 -i 34 -k AGT
h -t 1.000000000 -s 3 -d -1 -p tcp -e 40 -c 2 -a 0 -i 34 -k AGT
+ -t 1.000000000 -s 19 -d -1 -p tcp -e 40 -c 2 -a 0 -i 35 -k AGT 
- -t 1.000000000 -s 19 -d -1 -p tcp -e 40 -c 2 -a 0 -i 35 -k AGT
h -t 1.000000000 -s 19 -d -1 -p tcp -e 40 -c 2 -a 0 -i 35 -k AGT
+ -t 1.000000000 -s 2 -d -1 -p tcp -e 40 -c 2 -a 0 -i 36 -k AGT 
- -t 1.000000000 -s 2 -d -1 -p tcp -e 40 -c 2 -a 0 -i 36 -k AGT
h -t 1.000000000 -s 2 -d -1 -p tcp -e 40 -c 2 -a 0 -i 36 -k AGT
+ -t 1.000000000 -s 28 -d -1 -p tcp -e 40 -c 2 -a 0 -i 37 -k AGT 
- -t 1.000000000 -s 28 -d -1 -p tcp -e 40 -c 2 -a 0 -i 37 -k AGT
h -t 1.000000000 -s 28 -d -1 -p tcp -e 40 -c 2 -a 0 -i 37 -k AGT
+ -t 1.000000000 -s 25 -d -1 -p tcp -e 40 -c 2 -a 0 -i 38 -k AGT 
- -t 1.000000000 -s 25 -d -1 -p tcp -e 40 -c 2 -a 0 -i 38 -k AGT
h -t 1.000000000 -s 25 -d -1 -p tcp -e 40 -c 2 -a 0 -i 38 -k AGT
+ -t 1.000000000 -s 26 -d -1 -p tcp -e 40 -c 2 -a 0 -i 39 -k AGT 
- -t 1.000000000 -s 26 -d -1 -p tcp -e 40 -c 2 -a 0 -i 39 -k AGT
h -t 1.000000000 -s 26 -d -1 -p tcp -e 40 -c 2 -a 0 -i 39 -k AGT
+ -t 1.000000000 -s 34 -d -1 -p tcp -e 40 -c 2 -a 0 -i 40 -k AGT 
- -t 1.000000000 -s 34 -d -1 -p tcp -e 40 -c 2 -a 0 -i 40 -k AGT
h -t 1.000000000 -s 34 -d -1 -p tcp -e 40 -c 2 -a 0 -i 40 -k AGT
+ -t 1.000000000 -s 14 -d -1 -p tcp -e 40 -c 2 -a 0 -i 41 -k AGT 
- -t 1.000000000 -s 14 -d -1 -p tcp -e 40 -c 2 -a 0 -i 41 -k AGT
h -t 1.000000000 -s 14 -d -1 -p tcp -e 40 -c 2 -a 0 -i 41 -k AGT
+ -t 1.000000000 -s 19 -d -1 -p tcp -e 40 -c 2 -a 0 -i 42 -k AGT 
- -t 1.000000000 -s 19 -d -1 -p tcp -e 40 -c 2 -a 0 -i 42 -k AGT
h -t 1.000000000 -s 19 -d -1 -p tcp -e 40 -c 2 -a 0 -i 42 -k AGT
+ -t 1.000000000 -s 24 -d -1 -p tcp -e 40 -c 2 -a 0 -i 43 -k AGT 
- -t 1.000000000 -s 24 -d -1 -p tcp -e 40 -c 2 -a 0 -i 43 -k AGT
h -t 1.000000000 -s 24 -d -1 -p tcp -e 40 -c 2 -a 0 -i 43 -k AGT
+ -t 1.000000000 -s 20 -d -1 -p tcp -e 40 -c 2 -a 0 -i 44 -k AGT 
- -t 1.000000000 -s 20 -d -1 -p tcp -e 40 -c 2 -a 0 -i 44 -k AGT
h -t 1.000000000 -s 20 -d -1 -p tcp -e 40 -c 2 -a 0 -i 44 -k AGT
+ -t 1.000000000 -s 17 -d -1 -p tcp -e 40 -c 2 -a 0 -i 45 -k AGT 
- -t 1.000000000 -s 17 -d -1 -p tcp -e 40 -c 2 -a 0 -i 45 -k AGT
h -t 1.000000000 -s 17 -d -1 -p tcp -e 40 -c 2 -a 0 -i 45 -k AGT
+ -t 1.000000000 -s 20 -d -1 -p tcp -e 40 -c 2 -a 0 -i 46 -k AGT 
- -t 1.000000000 -s 20 -d -1 -p tcp -e 40 -c 2 -a 0 -i 46 -k AGT
h -t 1.000000000 -s 20 -d -1 -p tcp -e 40 -c 2 -a 0 -i 46 -k AGT
+ -t 1.000000000 -s 19 -d -1 -p tcp -e 40 -c 2 -a 0 -i 47 -k AGT 
- -t 1.000000000 -s 19 -d -1 -p tcp -e 40 -c 2 -a 0 -i 47 -k AGT
h -t 1.000000000 -s 19 -d -1 -p tcp -e 40 -c 2 -a 0 -i 47 -k AGT
+ -t 1.000000000 -s 23 -d -1 -p tcp -e 40 -c 2 -a 0 -i 48 -k AGT 
- -t 1.000000000 -s 23 -d -1 -p tcp -e 40 -c 2 -a 0 -i 48 -k AGT
h -t 1.000000000 -s 23 -d -1 -p tcp -e 40 -c 2 -a 0 -i 48 -k AGT
+ -t 1.000000000 -s 36 -d -1 -p tcp -e 40 -c 2 -a 0 -i 49 -k AGT 
- -t 1.000000000 -s 36 -d -1 -p tcp -e 40 -c 2 -a 0 -i 49 -k AGT
h -t 1.000000000 -s 36 -d -1 -p tcp -e 40 -c 2 -a 0 -i 49 -k AGT
+ -t 1.000000000 -s 5 -d -1 -p tcp -e 40 -c 2 -a 0 -i 50 -k AGT 
- -t 1.000000000 -s 5 -d -1 -p tcp -e 40 -c 2 -a 0 -i 50 -k AGT
h -t 1.000000000 -s 5 -d -1 -p tcp -e 40 -c 2 -a 0 -i 50 -k AGT
+ -t 1.000000000 -s 5 -d 14 -p tcp -e 60 -c 2 -a 0 -i 50 -k RTR 
- -t 1.000000000 -s 5 -d 14 -p tcp -e 60 -c 2 -a 0 -i 50 -k RTR
h -t 1.000000000 -s 5 -d 14 -p tcp -e 60 -c 2 -a 0 -i 50 -k RTR
+ -t 1.000000000 -s 20 -d -1 -p tcp -e 40 -c 2 -a 0 -i 51 -k AGT 
- -t 1.000000000 -s 20 -d -1 -p tcp -e 40 -c 2 -a 0 -i 51 -k AGT
h -t 1.000000000 -s 20 -d -1 -p tcp -e 40 -c 2 -a 0 -i 51 -k AGT
+ -t 1.000000000 -s 4 -d -1 -p tcp -e 40 -c 2 -a 0 -i 52 -k AGT 
- -t 1.000000000 -s 4 -d -1 -p tcp -e 40 -c 2 -a 0 -i 52 -k AGT
h -t 1.000000000 -s 4 -d -1 -p tcp -e 40 -c 2 -a 0 -i 52 -k AGT
+ -t 1.000000000 -s 20 -d -1 -p tcp -e 40 -c 2 -a 0 -i 53 -k AGT 
- -t 1.000000000 -s 20 -d -1 -p tcp -e 40 -c 2 -a 0 -i 53 -k AGT
h -t 1.000000000 -s 20 -d -1 -p tcp -e 40 -c 2 -a 0 -i 53 -k AGT
+ -t 1.000000000 -s 18 -d -1 -p tcp -e 40 -c 2 -a 0 -i 54 -k AGT 
- -t 1.000000000 -s 18 -d -1 -p tcp -e 40 -c 2 -a 0 -i 54 -k AGT
h -t 1.000000000 -s 18 -d -1 -p tcp -e 40 -c 2 -a 0 -i 54 -k AGT
+ -t 1.000000000 -s 21 -d -1 -p tcp -e 40 -c 2 -a 0 -i 55 -k AGT 
- -t 1.000000000 -s 21 -d -1 -p tcp -e 40 -c 2 -a 0 -i 55 -k AGT
h -t 1.000000000 -s 21 -d -1 -p tcp -e 40 -c 2 -a 0 -i 55 -k AGT
+ -t 1.000000000 -s 1 -d -1 -p tcp -e 40 -c 2 -a 0 -i 56 -k AGT 
- -t 1.000000000 -s 1 -d -1 -p tcp -e 40 -c 2 -a 0 -i 56 -k AGT
h -t 1.000000000 -s 1 -d -1 -p tcp -e 40 -c 2 -a 0 -i 56 -k AGT
+ -t 1.000000000 -s 28 -d -1 -p tcp -e 40 -c 2 -a 0 -i 57 -k AGT 
- -t 1.000000000 -s 28 -d -1 -p tcp -e 40 -c 2 -a 0 -i 57 -k AGT
h -t 1.000000000 -s 28 -d -1 -p tcp -e 40 -c 2 -a 0 -i 57 -k AGT
+ -t 1.000000000 -s 38 -d -1 -p tcp -e 40 -c 2 -a 0 -i 58 -k AGT 
- -t 1.000000000 -s 38 -d -1 -p tcp -e 40 -c 2 -a 0 -i 58 -k AGT
h -t 1.000000000 -s 38 -d -1 -p tcp -e 40 -c 2 -a 0 -i 58 -k AGT
+ -t 1.000000000 -s 5 -d -1 -p tcp -e 40 -c 2 -a 0 -i 59 -k AGT 
- -t 1.000000000 -s 5 -d -1 -p tcp -e 40 -c 2 -a 0 -i 59 -k AGT
h -t 1.000000000 -s 5 -d -1 -p tcp -e 40 -c 2 -a 0 -i 59 -k AGT
+ -t 1.000000000 -s 5 -d 7 -p tcp -e 60 -c 2 -a 0 -i 59 -k RTR 
- -t 1.000000000 -s 5 -d 7 -p tcp -e 60 -c 2 -a 0 -i 59 -k RTR
h -t 1.000000000 -s 5 -d 7 -p tcp -e 60 -c 2 -a 0 -i 59 -k RTR
+ -t 1.000000000 -s 36 -d -1 -p tcp -e 40 -c 2 -a 0 -i 60 -k AGT 
- -t 1.000000000 -s 36 -d -1 -p tcp -e 40 -c 2 -a 0 -i 60 -k AGT
h -t 1.000000000 -s 36 -d -1 -p tcp -e 40 -c 2 -a 0 -i 60 -k AGT
+ -t 1.000000000 -s 5 -d -1 -p tcp -e 40 -c 2 -a 0 -i 61 -k AGT 
- -t 1.000000000 -s 5 -d -1 -p tcp -e 40 -c 2 -a 0 -i 61 -k AGT
h -t 1.000000000 -s 5 -d -1 -p tcp -e 40 -c 2 -a 0 -i 61 -k AGT
+ -t 1.000000000 -s 13 -d -1 -p tcp -e 40 -c 2 -a 0 -i 62 -k AGT 
- -t 1.000000000 -s 13 -d -1 -p tcp -e 40 -c 2 -a 0 -i 62 -k AGT
h -t 1.000000000 -s 13 -d -1 -p tcp -e 40 -c 2 -a 0 -i 62 -k AGT
+ -t 1.000000000 -s 13 -d 11 -p tcp -e 60 -c 2 -a 0 -i 62 -k RTR 
- -t 1.000000000 -s 13 -d 11 -p tcp -e 60 -c 2 -a 0 -i 62 -k RTR
h -t 1.000000000 -s 13 -d 11 -p tcp -e 60 -c 2 -a 0 -i 62 -k RTR
+ -t 1.000000000 -s 21 -d -1 -p tcp -e 40 -c 2 -a 0 -i 63 -k AGT 
- -t 1.000000000 -s 21 -d -1 -p tcp -e 40 -c 2 -a 0 -i 63 -k AGT
h -t 1.000000000 -s 21 -d -1 -p tcp -e 40 -c 2 -a 0 -i 63 -k AGT
+ -t 1.000000000 -s 15 -d -1 -p tcp -e 40 -c 2 -a 0 -i 64 -k AGT 
- -t 1.000000000 -s 15 -d -1 -p tcp -e 40 -c 2 -a 0 -i 64 -k AGT
h -t 1.000000000 -s 15 -d -1 -p tcp -e 40 -c 2 -a 0 -i 64 -k AGT
+ -t 1.000000000 -s 39 -d -1 -p tcp -e 40 -c 2 -a 0 -i 65 -k AGT 
- -t 1.000000000 -s 39 -d -1 -p tcp -e 40 -c 2 -a 0 -i 65 -k AGT
h -t 1.000000000 -s 39 -d -1 -p tcp -e 40 -c 2 -a 0 -i 65 -k AGT
+ -t 1.000000000 -s 22 -d -1 -p tcp -e 40 -c 2 -a 0 -i 66 -k AGT 
- -t 1.000000000 -s 22 -d -1 -p tcp -e 40 -c 2 -a 0 -i 66 -k AGT
h -t 1.000000000 -s 22 -d -1 -p tcp -e 40 -c 2 -a 0 -i 66 -k AGT
r -t 1.011530500 -s 11 -d 11 -p tcp -e 60 -c 2 -a 0 -i 62 -k AGT
+ -t 1.011530500 -s 11 -d -1 -p ack -e 40 -c 2 -a 0 -i 67 -k AGT 
- -t 1.011530500 -s 11 -d -1 -p ack -e 40 -c 2 -a 0 -i 67 -k AGT
h -t 1.011530500 -s 11 -d -1 -p ack -e 40 -c 2 -a 0 -i 67 -k AGT
r -t 1.021732768 -s 14 -d 14 -p tcp -e 60 -c 2 -a 0 -i 50 -k AGT
+ -t 1.021732768 -s 14 -d -1 -p ack -e 40 -c 2 -a 0 -i 68 -k AGT 
- -t 1.021732768 -s 14 -d -1 -p ack -e 40 -c 2 -a 0 -i 68 -k AGT
h -t 1.021732768 -s 14 -d -1 -p ack -e 40 -c 2 -a 0 -i 68 -k AGT
r -t 1.034352679 -s 7 -d 7 -p tcp -e 60 -c 2 -a 0 -i 59 -k AGT
+ -t 1.034352679 -s 7 -d -1 -p ack -e 40 -c 2 -a 0 -i 69 -k AGT 
- -t 1.034352679 -s 7 -d -1 -p ack -e 40 -c 2 -a 0 -i 69 -k AGT
h -t 1.034352679 -s 7 -d -1 -p ack -e 40 -c 2 -a 0 -i 69 -k AGT
r -t 1.036434345 -s 11 -d 11 -p tcp -e 60 -c 2 -a 0 -i 31 -k AGT
+ -t 1.036434345 -s 11 -d -1 -p ack -e 40 -c 2 -a 0 -i 71 -k AGT 
- -t 1.036434345 -s 11 -d -1 -p ack -e 40 -c 2 -a 0 -i 71 -k AGT
h -t 1.036434345 -s 11 -d -1 -p ack -e 40 -c 2 -a 0 -i 71 -k AGT
+ -t 1.038745483 -s 24 -d -1 -p message -e 32 -c 2 -a 0 -i 70 -k RTR 
- -t 1.038745483 -s 24 -d -1 -p message -e 32 -c 2 -a 0 -i 70 -k RTR
h -t 1.038745483 -s 24 -d -1 -p message -e 32 -c 2 -a 0 -i 70 -k RTR
r -t 1.042155899 -s 14 -d -1 -p message -e 32 -c 2 -a 0 -i 70 -k RTR
r -t 1.042155899 -s 23 -d -1 -p message -e 32 -c 2 -a 0 -i 70 -k RTR
r -t 1.042155899 -s 34 -d -1 -p message -e 32 -c 2 -a 0 -i 70 -k RTR
r -t 1.042155899 -s 25 -d -1 -p message -e 32 -c 2 -a 0 -i 70 -k RTR
r -t 1.042156072 -s 33 -d -1 -p message -e 32 -c 2 -a 0 -i 70 -k RTR
r -t 1.042156072 -s 13 -d -1 -p message -e 32 -c 2 -a 0 -i 70 -k RTR
r -t 1.042156072 -s 15 -d -1 -p message -e 32 -c 2 -a 0 -i 70 -k RTR
r -t 1.042156072 -s 35 -d -1 -p message -e 32 -c 2 -a 0 -i 70 -k RTR
r -t 1.042156316 -s 4 -d -1 -p message -e 32 -c 2 -a 0 -i 70 -k RTR
r -t 1.042156316 -s 22 -d -1 -p message -e 32 -c 2 -a 0 -i 70 -k RTR
r -t 1.042156316 -s 26 -d -1 -p message -e 32 -c 2 -a 0 -i 70 -k RTR
+ -t 1.076582897 -s 21 -d -1 -p message -e 32 -c 2 -a 0 -i 72 -k RTR 
- -t 1.076582897 -s 21 -d -1 -p message -e 32 -c 2 -a 0 -i 72 -k RTR
h -t 1.076582897 -s 21 -d -1 -p message -e 32 -c 2 -a 0 -i 72 -k RTR
r -t 1.081273314 -s 11 -d -1 -p message -e 32 -c 2 -a 0 -i 72 -k RTR
r -t 1.081273314 -s 20 -d -1 -p message -e 32 -c 2 -a 0 -i 72 -k RTR
r -t 1.081273314 -s 31 -d -1 -p message -e 32 -c 2 -a 0 -i 72 -k RTR
r -t 1.081273314 -s 22 -d -1 -p message -e 32 -c 2 -a 0 -i 72 -k RTR
+ -t 1.081273314 -s 22 -d 21 -p tcp -e 80 -c 2 -a 0 -i 66 -k RTR 
- -t 1.081273314 -s 22 -d 21 -p tcp -e 80 -c 2 -a 0 -i 66 -k RTR
h -t 1.081273314 -s 22 -d 21 -p tcp -e 80 -c 2 -a 0 -i 66 -k RTR
r -t 1.081273487 -s 30 -d -1 -p message -e 32 -c 2 -a 0 -i 72 -k RTR
r -t 1.081273487 -s 10 -d -1 -p message -e 32 -c 2 -a 0 -i 72 -k RTR
r -t 1.081273487 -s 12 -d -1 -p message -e 32 -c 2 -a 0 -i 72 -k RTR
r -t 1.081273487 -s 32 -d -1 -p message -e 32 -c 2 -a 0 -i 72 -k RTR