n -t * -s 0  -x 0 -y 0 -Z 0 -z 20  -v circle -c black
n -t * -s 1  -x 50 -y 0 -Z 0 -z 20  -v circle -c black
n -t * -s 2  -x 100 -y 0 -Z 0 -z 20  -v circle -c black
n -t * -s 3  -x 150 -y 0 -Z 0 -z 20  -v circle -c black
n -t * -s 4  -x 0 -y 50 -Z 0 -z 20  -v circle -c black
n -t * -s 5  -x 50 -y 50 -Z 0 -z 20  -v circle -c black
n -t * -s 6  -x 100 -y 50 -Z 0 -z 20  -v circle -c black
n -t * -s 7  -x 150 -y 50 -Z 0 -z 20  -v circle -c black
n -t * -s 8  -x 0 -y 100 -Z 0 -z 20  -v circle -c black
n -t * -s 9  -x 50 -y 100 -Z 0 -z 20  -v circle -c black
n -t * -s 10  -x 100 -y 100 -Z 0 -z 20  -v circle -c black
n -t * -s 11  -x 150 -y 100 -Z 0 -z 20  -v circle -c black
n -t * -s 12  -x 0 -y 150 -Z 0 -z 20  -v circle -c black
n -t * -s 13  -x 50 -y 150 -Z 0 -z 20  -v circle -c black
n -t * -s 14  -x 100 -y 150 -Z 0 -z 20  -v circle -c black
n -t * -s 15  -x 150 -y 150 -Z 0 -z 20  -v circle -c black
V -t * -v 1.0a5 -a 0
W -t * -x 400 -y 400
A -t * -n 1 -p 0 -o 0x7fffffff -c 30 -a 1
A -t * -h 1 -m 1073741823 -s 0
+ -t 0.090775603 -s 5 -d -1 -p message -e 32 -c 2 -a 0 -i 0 -k RTR 
- -t 0.090775603 -s 5 -d -1 -p message -e 32 -c 2 -a 0 -i 0 -k RTR
h -t 0.090775603 -s 5 -d -1 -p message -e 32 -c 2 -a 0 -i 0 -k RTR
r -t 0.091775770 -s 1 -d -1 -p message -e 32 -c 2 -a 0 -i 0 -k RTR
r -t 0.091775770 -s 4 -d -1 -p message -e 32 -c 2 -a 0 -i 0 -k RTR
r -t 0.091775770 -s 9 -d -1 -p message -e 32 -c 2 -a 0 -i 0 -k RTR
r -t 0.091775770 -s 6 -d -1 -p message -e 32 -c 2 -a 0 -i 0 -k RTR
r -t 0.091775839 -s 8 -d -1 -p message -e 32 -c 2 -a 0 -i 0 -k RTR
r -t 0.091775839 -s 0 -d -1 -p message -e 32 -c 2 -a 0 -i 0 -k RTR
r -t 0.091775839 -s 2 -d -1 -p message -e 32 -c 2 -a 0 -i 0 -k RTR
r -t 0.091775839 -s 10 -d -1 -p message -e 32 -c 2 -a 0 -i 0 -k RTR
r -t 0.091775937 -s 13 -d -1 -p message -e 32 -c 2 -a 0 -i 0 -k RTR
r -t 0.091775937 -s 7 -d -1 -p message -e 32 -c 2 -a 0 -i 0 -k RTR
r -t 0.091775976 -s 12 -d -1 -p message -e 32 -c 2 -a 0 -i 0 -k RTR
r -t 0.091775976 -s 14 -d -1 -p message -e 32 -c 2 -a 0 -i 0 -k RTR
r -t 0.091775976 -s 3 -d -1 -p message -e 32 -c 2 -a 0 -i 0 -k RTR
r -t 0.091775976 -s 11 -d -1 -p message -e 32 -c 2 -a 0 -i 0 -k RTR
r -t 0.091776075 -s 15 -d -1 -p message -e 32 -c 2 -a 0 -i 0 -k RTR
+ -t 0.196675961 -s 11 -d -1 -p message -e 32 -c 2 -a 0 -i 1 -k RTR 
- -t 0.196675961 -s 11 -d -1 -p message -e 32 -c 2 -a 0 -i 1 -k RTR
h -t 0.196675961 -s 11 -d -1 -p message -e 32 -c 2 -a 0 -i 1 -k RTR
r -t 0.197856128 -s 7 -d -1 -p message -e 32 -c 2 -a 0 -i 1 -k RTR
r -t 0.197856128 -s 10 -d -1 -p message -e 32 -c 2 -a 0 -i 1 -k RTR
r -t 0.197856128 -s 15 -d -1 -p message -e 32 -c 2 -a 0 -i 1 -k RTR
r -t 0.197856197 -s 14 -d -1 -p message -e 32 -c 2 -a 0 -i 1 -k RTR
r -t 0.197856197 -s 6 -d -1 -p message -e 32 -c 2 -a 0 -i 1 -k RTR
r -t 0.197856294 -s 3 -d -1 -p message -e 32 -c 2 -a 0 -i 1 -k RTR
r -t 0.197856294 -s 9 -d -1 -p message -e 32 -c 2 -a 0 -i 1 -k RTR
r -t 0.197856334 -s 2 -d -1 -p message -e 32 -c 2 -a 0 -i 1 -k RTR
r -t 0.197856334 -s 13 -d -1 -p message -e 32 -c 2 -a 0 -i 1 -k RTR
r -t 0.197856334 -s 5 -d -1 -p message -e 32 -c 2 -a 0 -i 1 -k RTR
r -t 0.197856433 -s 1 -d -1 -p message -e 32 -c 2 -a 0 -i 1 -k RTR
r -t 0.197856461 -s 8 -d -1 -p message -e 32 -c 2 -a 0 -i 1 -k RTR
r -t 0.197856488 -s 12 -d -1 -p message -e 32 -c 2 -a 0 -i 1 -k RTR
r -t 0.197856488 -s 4 -d -1 -p message -e 32 -c 2 -a 0 -i 1 -k RTR
r -t 0.197856562 -s 0 -d -1 -p message -e 32 -c 2 -a 0 -i 1 -k RTR
+ -t 0.234389987 -s 7 -d -1 -p message -e 32 -c 2 -a 0 -i 2 -k RTR 
- -t 0.234389987 -s 7 -d -1 -p message -e 32 -c 2 -a 0 -i 2 -k RTR
h -t 0.234389987 -s 7 -d -1 -p message -e 32 -c 2 -a 0 -i 2 -k RTR
r -t 0.235350153 -s 3 -d -1 -p message -e 32 -c 2 -a 0 -i 2 -k RTR
r -t 0.235350153 -s 6 -d -1 -p message -e 32 -c 2 -a 0 -i 2 -k RTR
r -t 0.235350153 -s 11 -d -1 -p message -e 32 -c 2 -a 0 -i 2 -k RTR
r -t 0.235350222 -s 10 -d -1 -p message -e 32 -c 2 -a 0 -i 2 -k RTR
r -t 0.235350222 -s 2 -d -1 -p message -e 32 -c 2 -a 0 -i 2 -k RTR
r -t 0.235350320 -s 5 -d -1 -p message -e 32 -c 2 -a 0 -i 2 -k RTR
r -t 0.235350320 -s 15 -d -1 -p message -e 32 -c 2 -a 0 -i 2 -k RTR
r -t 0.235350359 -s 14 -d -1 -p message -e 32 -c 2 -a 0 -i 2 -k RTR
r -t 0.235350359 -s 9 -d -1 -p message -e 32 -c 2 -a 0 -i 2 -k RTR
r -t 0.235350359 -s 1 -d -1 -p message -e 32 -c 2 -a 0 -i 2 -k RTR
r -t 0.235350458 -s 13 -d -1 -p message -e 32 -c 2 -a 0 -i 2 -k RTR
r -t 0.235350487 -s 4 -d -1 -p message -e 32 -c 2 -a 0 -i 2 -k RTR
r -t 0.235350514 -s 8 -d -1 -p message -e 32 -c 2 -a 0 -i 2 -k RTR
r -t 0.235350514 -s 0 -d -1 -p message -e 32 -c 2 -a 0 -i 2 -k RTR
r -t 0.235350588 -s 12 -d -1 -p message -e 32 -c 2 -a 0 -i 2 -k RTR
+ -t 0.329382798 -s 4 -d -1 -p message -e 32 -c 2 -a 0 -i 3 -k RTR 
- -t 0.329382798 -s 4 -d -1 -p message -e 32 -c 2 -a 0 -i 3 -k RTR
h -t 0.329382798 -s 4 -d -1 -p message -e 32 -c 2 -a 0 -i 3 -k RTR
r -t 0.330302965 -s 0 -d -1 -p message -e 32 -c 2 -a 0 -i 3 -k RTR
r -t 0.330302965 -s 8 -d -1 -p message -e 32 -c 2 -a 0 -i 3 -k RTR
r -t 0.330302965 -s 5 -d -1 -p message -e 32 -c 2 -a 0 -i 3 -k RTR
r -t 0.330303034 -s 1 -d -1 -p message -e 32 -c 2 -a 0 -i 3 -k RTR
r -t 0.330303034 -s 9 -d -1 -p message -e 32 -c 2 -a 0 -i 3 -k RTR
r -t 0.330303131 -s 12 -d -1 -p message -e 32 -c 2 -a 0 -i 3 -k RTR
r -t 0.330303131 -s 6 -d -1 -p message -e 32 -c 2 -a 0 -i 3 -k RTR
r -t 0.330303171 -s 13 -d -1 -p message -e 32 -c 2 -a 0 -i 3 -k RTR
r -t 0.330303171 -s 2 -d -1 -p message -e 32 -c 2 -a 0 -i 3 -k RTR
r -t 0.330303171 -s 10 -d -1 -p message -e 32 -c 2 -a 0 -i 3 -k RTR
r -t 0.330303269 -s 14 -d -1 -p message -e 32 -c 2 -a 0 -i 3 -k RTR
r -t 0.330303298 -s 7 -d -1 -p message -e 32 -c 2 -a 0 -i 3 -k RTR
r -t 0.330303325 -s 3 -d -1 -p message -e 32 -c 2 -a 0 -i 3 -k RTR
r -t 0.330303325 -s 11 -d -1 -p message -e 32 -c 2 -a 0 -i 3 -k RTR
r -t 0.330303399 -s 15 -d -1 -p message -e 32 -c 2 -a 0 -i 3 -k RTR
+ -t 0.359073157 -s 10 -d -1 -p message -e 32 -c 2 -a 0 -i 4 -k RTR 
- -t 0.359073157 -s 10 -d -1 -p message -e 32 -c 2 -a 0 -i 4 -k RTR
h -t 0.359073157 -s 10 -d -1 -p message -e 32 -c 2 -a 0 -i 4 -k RTR
r -t 0.360473324 -s 6 -d -1 -p message -e 32 -c 2 -a 0 -i 4 -k RTR
r -t 0.360473324 -s 9 -d -1 -p message -e 32 -c 2 -a 0 -i 4 -k RTR
r -t 0.360473324 -s 14 -d -1 -p message -e 32 -c 2 -a 0 -i 4 -k RTR
r -t 0.360473324 -s 11 -d -1 -p message -e 32 -c 2 -a 0 -i 4 -k RTR
r -t 0.360473393 -s 13 -d -1 -p message -e 32 -c 2 -a 0 -i 4 -k RTR
r -t 0.360473393 -s 5 -d -1 -p message -e 32 -c 2 -a 0 -i 4 -k RTR
r -t 0.360473393 -s 7 -d -1 -p message -e 32 -c 2 -a 0 -i 4 -k RTR
r -t 0.360473393 -s 15 -d -1 -p message -e 32 -c 2 -a 0 -i 4 -k RTR
r -t 0.360473491 -s 2 -d -1 -p message -e 32 -c 2 -a 0 -i 4 -k RTR
r -t 0.360473491 -s 8 -d -1 -p message -e 32 -c 2 -a 0 -i 4 -k RTR
r -t 0.360473530 -s 1 -d -1 -p message -e 32 -c 2 -a 0 -i 4 -k RTR
r -t 0.360473530 -s 12 -d -1 -p message -e 32 -c 2 -a 0 -i 4 -k RTR
r -t 0.360473530 -s 4 -d -1 -p message -e 32 -c 2 -a 0 -i 4 -k RTR
r -t 0.360473530 -s 3 -d -1 -p message -e 32 -c 2 -a 0 -i 4 -k RTR
r -t 0.360473629 -s 0 -d -1 -p message -e 32 -c 2 -a 0 -i 4 -k RTR
+ -t 0.469311587 -s 0 -d -1 -p message -e 32 -c 2 -a 0 -i 5 -k RTR 
- -t 0.469311587 -s 0 -d -1 -p message -e 32 -c 2 -a 0 -i 5 -k RTR
h -t 0.469311587 -s 0 -d -1 -p message -e 32 -c 2 -a 0 -i 5 -k RTR
r -t 0.470631754 -s 4 -d -1 -p message -e 32 -c 2 -a 0 -i 5 -k RTR
r -t 0.470631754 -s 1 -d -1 -p message -e 32 -c 2 -a 0 -i 5 -k RTR
r -t 0.470631823 -s 5 -d -1 -p message -e 32 -c 2 -a 0 -i 5 -k RTR
r -t 0.470631920 -s 8 -d -1 -p message -e 32 -c 2 -a 0 -i 5 -k RTR
r -t 0.470631920 -s 2 -d -1 -p message -e 32 -c 2 -a 0 -i 5 -k RTR
r -t 0.470631960 -s 9 -d -1 -p message -e 32 -c 2 -a 0 -i 5 -k RTR
r -t 0.470631960 -s 6 -d -1 -p message -e 32 -c 2 -a 0 -i 5 -k RTR
r -t 0.470632058 -s 10 -d -1 -p message -e 32 -c 2 -a 0 -i 5 -k RTR
r -t 0.470632087 -s 12 -d -1 -p message -e 32 -c 2 -a 0 -i 5 -k RTR
r -t 0.470632087 -s 3 -d -1 -p message -e 32 -c 2 -a 0 -i 5 -k RTR
r -t 0.470632114 -s 13 -d -1 -p message -e 32 -c 2 -a 0 -i 5 -k RTR
r -t 0.470632114 -s 7 -d -1 -p message -e 32 -c 2 -a 0 -i 5 -k RTR
r -t 0.470632188 -s 14 -d -1 -p message -e 32 -c 2 -a 0 -i 5 -k RTR
r -t 0.470632188 -s 11 -d -1 -p message -e 32 -c 2 -a 0 -i 5 -k RTR
r -t 0.470632294 -s 15 -d -1 -p message -e 32 -c 2 -a 0 -i 5 -k RTR
+ -t 0.522862137 -s 14 -d -1 -p message -e 32 -c 2 -a 0 -i 6 -k RTR 
- -t 0.522862137 -s 14 -d -1 -p message -e 32 -c 2 -a 0 -i 6 -k RTR
h -t 0.522862137 -s 14 -d -1 -p message -e 32 -c 2 -a 0 -i 6 -k RTR
r -t 0.524162303 -s 10 -d -1 -p message -e 32 -c 2 -a 0 -i 6 -k RTR
r -t 0.524162303 -s 13 -d -1 -p message -e 32 -c 2 -a 0 -i 6 -k RTR
r -t 0.524162303 -s 15 -d -1 -p message -e 32 -c 2 -a 0 -i 6 -k RTR
r -t 0.524162372 -s 9 -d -1 -p message -e 32 -c 2 -a 0 -i 6 -k RTR
r -t 0.524162372 -s 11 -d -1 -p message -e 32 -c 2 -a 0 -i 6 -k RTR
r -t 0.524162470 -s 6 -d -1 -p message -e 32 -c 2 -a 0 -i 6 -k RTR
r -t 0.524162470 -s 12 -d -1 -p message -e 32 -c 2 -a 0 -i 6 -k RTR
r -t 0.524162509 -s 5 -d -1 -p message -e 32 -c 2 -a 0 -i 6 -k RTR
r -t 0.524162509 -s 8 -d -1 -p message -e 32 -c 2 -a 0 -i 6 -k RTR
r -t 0.524162509 -s 7 -d -1 -p message -e 32 -c 2 -a 0 -i 6 -k RTR
r -t 0.524162608 -s 4 -d -1 -p message -e 32 -c 2 -a 0 -i 6 -k RTR
r -t 0.524162637 -s 2 -d -1 -p message -e 32 -c 2 -a 0 -i 6 -k RTR
r -t 0.524162664 -s 1 -d -1 -p message -e 32 -c 2 -a 0 -i 6 -k RTR
r -t 0.524162664 -s 3 -d -1 -p message -e 32 -c 2 -a 0 -i 6 -k RTR
r -t 0.524162737 -s 0 -d -1 -p message -e 32 -c 2 -a 0 -i 6 -k RTR
+ -t 0.626924672 -s 2 -d -1 -p message -e 32 -c 2 -a 0 -i 7 -k RTR 
- -t 0.626924672 -s 2 -d -1 -p message -e 32 -c 2 -a 0 -i 7 -k RTR
h -t 0.626924672 -s 2 -d -1 -p message -e 32 -c 2 -a 0 -i 7 -k RTR
r -t 0.627904839 -s 1 -d -1 -p message -e 32 -c 2 -a 0 -i 7 -k RTR
r -t 0.627904839 -s 6 -d -1 -p message -e 32 -c 2 -a 0 -i 7 -k RTR
r -t 0.627904839 -s 3 -d -1 -p message -e 32 -c 2 -a 0 -i 7 -k RTR
r -t 0.627904908 -s 5 -d -1 -p message -e 32 -c 2 -a 0 -i 7 -k RTR
r -t 0.627904908 -s 7 -d -1 -p message -e 32 -c 2 -a 0 -i 7 -k RTR
r -t 0.627905006 -s 0 -d -1 -p message -e 32 -c 2 -a 0 -i 7 -k RTR
r -t 0.627905006 -s 10 -d -1 -p message -e 32 -c 2 -a 0 -i 7 -k RTR
r -t 0.627905045 -s 9 -d -1 -p message -e 32 -c 2 -a 0 -i 7 -k RTR
r -t 0.627905045 -s 4 -d -1 -p message -e 32 -c 2 -a 0 -i 7 -k RTR
r -t 0.627905045 -s 11 -d -1 -p message -e 32 -c 2 -a 0 -i 7 -k RTR
r -t 0.627905144 -s 8 -d -1 -p message -e 32 -c 2 -a 0 -i 7 -k RTR
r -t 0.627905172 -s 14 -d -1 -p message -e 32 -c 2 -a 0 -i 7 -k RTR
r -t 0.627905199 -s 13 -d -1 -p message -e 32 -c 2 -a 0 -i 7 -k RTR
r -t 0.627905199 -s 15 -d -1 -p message -e 32 -c 2 -a 0 -i 7 -k RTR
r -t 0.627905273 -s 12 -d -1 -p message -e 32 -c 2 -a 0 -i 7 -k RTR
+ -t 0.697757626 -s 13 -d -1 -p message -e 32 -c 2 -a 0 -i 8 -k RTR 
- -t 0.697757626 -s 13 -d -1 -p message -e 32 -c 2 -a 0 -i 8 -k RTR
h -t 0.697757626 -s 13 -d -1 -p message -e 32 -c 2 -a 0 -i 8 -k RTR
r -t 0.698577793 -s 9 -d -1 -p message -e 32 -c 2 -a 0 -i 8 -k RTR
r -t 0.698577793 -s 12 -d -1 -p message -e 32 -c 2 -a 0 -i 8 -k RTR
r -t 0.698577793 -s 14 -d -1 -p message -e 32 -c 2 -a 0 -i 8 -k RTR
r -t 0.698577862 -s 8 -d -1 -p message -e 32 -c 2 -a 0 -i 8 -k RTR
r -t 0.698577862 -s 10 -d -1 -p message -e 32 -c 2 -a 0 -i 8 -k RTR
r -t 0.698577959 -s 5 -d -1 -p message -e 32 -c 2 -a 0 -i 8 -k RTR
r -t 0.698577959 -s 15 -d -1 -p message -e 32 -c 2 -a 0 -i 8 -k RTR
r -t 0.698577999 -s 4 -d -1 -p message -e 32 -c 2 -a 0 -i 8 -k RTR
r -t 0.698577999 -s 6 -d -1 -p message -e 32 -c 2 -a 0 -i 8 -k RTR
r -t 0.698577999 -s 11 -d -1 -p message -e 32 -c 2 -a 0 -i 8 -k RTR
r -t 0.698578097 -s 7 -d -1 -p message -e 32 -c 2 -a 0 -i 8 -k RTR
r -t 0.698578126 -s 1 -d -1 -p message -e 32 -c 2 -a 0 -i 8 -k RTR
r -t 0.698578153 -s 0 -d -1 -p message -e 32 -c 2 -a 0 -i 8 -k RTR
r -t 0.698578153 -s 2 -d -1 -p message -e 32 -c 2 -a 0 -i 8 -k RTR
r -t 0.698578227 -s 3 -d -1 -p message -e 32 -c 2 -a 0 -i 8 -k RTR
+ -t 0.826839514 -s 15 -d -1 -p message -e 32 -c 2 -a 0 -i 9 -k RTR 
- -t 0.826839514 -s 15 -d -1 -p message -e 32 -c 2 -a 0 -i 9 -k RTR
h -t 0.826839514 -s 15 -d -1 -p message -e 32 -c 2 -a 0 -i 9 -k RTR
r -t 0.827679681 -s 11 -d -1 -p message -e 32 -c 2 -a 0 -i 9 -k RTR
r -t 0.827679681 -s 14 -d -1 -p message -e 32 -c 2 -a 0 -i 9 -k RTR
r -t 0.827679750 -s 10 -d -1 -p message -e 32 -c 2 -a 0 -i 9 -k RTR
r -t 0.827679847 -s 7 -d -1 -p message -e 32 -c 2 -a 0 -i 9 -k RTR
r -t 0.827679847 -s 13 -d -1 -p message -e 32 -c 2 -a 0 -i 9 -k RTR
r -t 0.827679887 -s 6 -d -1 -p message -e 32 -c 2 -a 0 -i 9 -k RTR
r -t 0.827679887 -s 9 -d -1 -p message -e 32 -c 2 -a 0 -i 9 -k RTR
r -t 0.827679985 -s 5 -d -1 -p message -e 32 -c 2 -a 0 -i 9 -k RTR
r -t 0.827680014 -s 3 -d -1 -p message -e 32 -c 2 -a 0 -i 9 -k RTR
r -t 0.827680014 -s 12 -d -1 -p message -e 32 -c 2 -a 0 -i 9 -k RTR
r -t 0.827680041 -s 2 -d -1 -p message -e 32 -c 2 -a 0 -i 9 -k RTR
r -t 0.827680041 -s 8 -d -1 -p message -e 32 -c 2 -a 0 -i 9 -k RTR
r -t 0.827680115 -s 1 -d -1 -p message -e 32 -c 2 -a 0 -i 9 -k RTR
r -t 0.827680115 -s 4 -d -1 -p message -e 32 -c 2 -a 0 -i 9 -k RTR
r -t 0.827680221 -s 0 -d -1 -p message -e 32 -c 2 -a 0 -i 9 -k RTR
+ -t 0.849100751 -s 9 -d -1 -p message -e 32 -c 2 -a 0 -i 10 -k RTR 
- -t 0.849100751 -s 9 -d -1 -p message -e 32 -c 2 -a 0 -i 10 -k RTR
h -t 0.849100751 -s 9 -d -1 -p message -e 32 -c 2 -a 0 -i 10 -k RTR
r -t 0.850220918 -s 5 -d -1 -p message -e 32 -c 2 -a 0 -i 10 -k RTR
r -t 0.850220918 -s 8 -d -1 -p message -e 32 -c 2 -a 0 -i 10 -k RTR
r -t 0.850220918 -s 13 -d -1 -p message -e 32 -c 2 -a 0 -i 10 -k RTR
r -t 0.850220918 -s 10 -d -1 -p message -e 32 -c 2 -a 0 -i 10 -k RTR
r -t 0.850220987 -s 12 -d -1 -p message -e 32 -c 2 -a 0 -i 10 -k RTR
r -t 0.850220987 -s 4 -d -1 -p message -e 32 -c 2 -a 0 -i 10 -k RTR
r -t 0.850220987 -s 6 -d -1 -p message -e 32 -c 2 -a 0 -i 10 -k RTR
r -t 0.850220987 -s 14 -d -1 -p message -e 32 -c 2 -a 0 -i 10 -k RTR
r -t 0.850221084 -s 1 -d -1 -p message -e 32 -c 2 -a 0 -i 10 -k RTR
r -t 0.850221084 -s 11 -d -1 -p message -e 32 -c 2 -a 0 -i 10 -k RTR
r -t 0.850221124 -s 0 -d -1 -p message -e 32 -c 2 -a 0 -i 10 -k RTR
r -t 0.850221124 -s 2 -d -1 -p message -e 32 -c 2 -a 0 -i 10 -k RTR
r -t 0.850221124 -s 7 -d -1 -p message -e 32 -c 2 -a 0 -i 10 -k RTR
r -t 0.850221124 -s 15 -d -1 -p message -e 32 -c 2 -a 0 -i 10 -k RTR
r -t 0.850221222 -s 3 -d -1 -p message -e 32 -c 2 -a 0 -i 10 -k RTR
+ -t 1.000000000 -s 0 -d -1 -p tcp -e 40 -c 2 -a 0 -i 11 -k AGT 
- -t 1.000000000 -s 0 -d -1 -p tcp -e 40 -c 2 -a 0 -i 11 -k AGT
h -t 1.000000000 -s 0 -d -1 -p tcp -e 40 -c 2 -a 0 -i 11 -k AGT
+ -t 1.000000000 -s 1 -d -1 -p tcp -e 40 -c 2 -a 0 -i 12 -k AGT 
- -t 1.000000000 -s 1 -d -1 -p tcp -e 40 -c 2 -a 0 -i 12 -k AGT
h -t 1.000000000 -s 1 -d -1 -p tcp -e 40 -c 2 -a 0 -i 12 -k AGT
+ -t 1.000000000 -s 1 -d 9 -p tcp -e 60 -c 2 -a 0 -i 12 -k RTR 
- -t 1.000000000 -s 1 -d 9 -p tcp -e 60 -c 2 -a 0 -i 12 -k RTR
h -t 1.000000000 -s 1 -d 9 -p tcp -e 60 -c 2 -a 0 -i 12 -k RTR
+ -t 1.000000000 -s 2 -d -1 -p tcp -e 40 -c 2 -a 0 -i 13 -k AGT 
- -t 1.000000000 -s 2 -d -1 -p tcp -e 40 -c 2 -a 0 -i 13 -k AGT
h -t 1.000000000 -s 2 -d -1 -p tcp -e 40 -c 2 -a 0 -i 13 -k AGT
+ -t 1.000000000 -s 2 -d 10 -p tcp -e 60 -c 2 -a 0 -i 13 -k RTR 
- -t 1.000000000 -s 2 -d 10 -p tcp -e 60 -c 2 -a 0 -i 13 -k RTR
h -t 1.000000000 -s 2 -d 10 -p tcp -e 60 -c 2 -a 0 -i 13 -k RTR
+ -t 1.000000000 -s 3 -d -1 -p tcp -e 40 -c 2 -a 0 -i 14 -k AGT 
- -t 1.000000000 -s 3 -d -1 -p tcp -e 40 -c 2 -a 0 -i 14 -k AGT
h -t 1.000000000 -s 3 -d -1 -p tcp -e 40 -c 2 -a 0 -i 14 -k AGT
+ -t 1.000000000 -s 3 -d 11 -p tcp -e 60 -c 2 -a 0 -i 14 -k RTR 
- -t 1.000000000 -s 3 -d 11 -p tcp -e 60 -c 2 -a 0 -i 14 -k RTR
h -t 1.000000000 -s 3 -d 11 -p tcp -e 60 -c 2 -a 0 -i 14 -k RTR
+ -t 1.000000000 -s 4 -d -1 -p tcp -e 40 -c 2 -a 0 -i 15 -k AGT 
- -t 1.000000000 -s 4 -d -1 -p tcp -e 40 -c 2 -a 0 -i 15 -k AGT
h -t 1.000000000 -s 4 -d -1 -p tcp -e 40 -c 2 -a 0 -i 15 -k AGT
+ -t 1.000000000 -s 5 -d -1 -p tcp -e 40 -c 2 -a 0 -i 16 -k AGT 
- -t 1.000000000 -s 5 -d -1 -p tcp -e 40 -c 2 -a 0 -i 16 -k AGT
h -t 1.000000000 -s 5 -d -1 -p tcp -e 40 -c 2 -a 0 -i 16 -k AGT
+ -t 1.000000000 -s 5 -d 13 -p tcp -e 60 -c 2 -a 0 -i 16 -k RTR 
- -t 1.000000000 -s 5 -d 13 -p tcp -e 60 -c 2 -a 0 -i 16 -k RTR
h -t 1.000000000 -s 5 -d 13 -p tcp -e 60 -c 2 -a 0 -i 16 -k RTR
+ -t 1.000000000 -s 6 -d -1 -p tcp -e 40 -c 2 -a 0 -i 17 -k AGT 
- -t 1.000000000 -s 6 -d -1 -p tcp -e 40 -c 2 -a 0 -i 17 -k AGT
h -t 1.000000000 -s 6 -d -1 -p tcp -e 40 -c 2 -a 0 -i 17 -k AGT
+ -t 1.000000000 -s 6 -d 14 -p tcp -e 60 -c 2 -a 0 -i 17 -k RTR 
- -t 1.000000000 -s 6 -d 14 -p tcp -e 60 -c 2 -a 0 -i 17 -k RTR
h -t 1.000000000 -s 6 -d 14 -p tcp -e 60 -c 2 -a 0 -i 17 -k RTR
+ -t 1.000000000 -s 7 -d -1 -p tcp -e 40 -c 2 -a 0 -i 18 -k AGT 
- -t 1.000000000 -s 7 -d -1 -p tcp -e 40 -c 2 -a 0 -i 18 -k AGT
h -t 1.000000000 -s 7 -d -1 -p tcp -e 40 -c 2 -a 0 -i 18 -k AGT
+ -t 1.000000000 -s 7 -d 15 -p tcp -e 60 -c 2 -a 0 -i 18 -k RTR 
- -t 1.000000000 -s 7 -d 15 -p tcp -e 60 -c 2 -a 0 -i 18 -k RTR
h -t 1.000000000 -s 7 -d 15 -p tcp -e 60 -c 2 -a 0 -i 18 -k RTR
r -t 1.007765471 -s 14 -d 14 -p tcp -e 60 -c 2 -a 0 -i 17 -k AGT
+ -t 1.007765471 -s 14 -d -1 -p ack -e 40 -c 2 -a 0 -i 19 -k AGT 
- -t 1.007765471 -s 14 -d -1 -p ack -e 40 -c 2 -a 0 -i 19 -k AGT
h -t 1.007765471 -s 14 -d -1 -p ack -e 40 -c 2 -a 0 -i 19 -k AGT
r -t 1.016402303 -s 15 -d 15 -p tcp -e 60 -c 2 -a 0 -i 18 -k AGT
+ -t 1.016402303 -s 15 -d -1 -p ack -e 40 -c 2 -a 0 -i 20 -k AGT 
- -t 1.016402303 -s 15 -d -1 -p ack -e 40 -c 2 -a 0 -i 20 -k AGT
h -t 1.016402303 -s 15 -d -1 -p ack -e 40 -c 2 -a 0 -i 20 -k AGT
+ -t 1.016402303 -s 15 -d 7 -p ack -e 60 -c 2 -a 0 -i 20 -k RTR 
- -t 1.016402303 -s 15 -d 7 -p ack -e 60 -c 2 -a 0 -i 20 -k RTR
h -t 1.016402303 -s 15 -d 7 -p ack -e 60 -c 2 -a 0 -i 20 -k RTR
r -t 1.018507904 -s 9 -d 9 -p tcp -e 60 -c 2 -a 0 -i 12 -k AGT
+ -t 1.018507904 -s 9 -d -1 -p ack -e 40 -c 2 -a 0 -i 21 -k AGT 
- -t 1.018507904 -s 9 -d -1 -p ack -e 40 -c 2 -a 0 -i 21 -k AGT
h -t 1.018507904 -s 9 -d -1 -p ack -e 40 -c 2 -a 0 -i 21 -k AGT
r -t 1.023328778 -s 7 -d 7 -p ack -e 60 -c 2 -a 0 -i 20 -k AGT
+ -t 1.023328778 -s 7 -d -1 -p tcp -e 1040 -c 2 -a 0 -i 22 -k AGT 
- -t 1.023328778 -s 7 -d -1 -p tcp -e 1040 -c 2 -a 0 -i 22 -k AGT
h -t 1.023328778 -s 7 -d -1 -p tcp -e 1040 -c 2 -a 0 -i 22 -k AGT
+ -t 1.023328778 -s 7 -d 15 -p tcp -e 1060 -c 2 -a 0 -i 22 -k RTR 
- -t 1.023328778 -s 7 -d 15 -p tcp -e 1060 -c 2 -a 0 -i 22 -k RTR
h -t 1.023328778 -s 7 -d 15 -p tcp -e 1060 -c 2 -a 0 -i 22 -k RTR
+ -t 1.023328778 -s 7 -d -1 -p tcp -e 1040 -c 2 -a 0 -i 23 -k AGT 
- -t 1.023328778 -s 7 -d -1 -p tcp -e 1040 -c 2 -a 0 -i 23 -k AGT
h -t 1.023328778 -s 7 -d -1 -p tcp -e 1040 -c 2 -a 0 -i 23 -k AGT
+ -t 1.023328778 -s 7 -d 15 -p tcp -e 1060 -c 2 -a 0 -i 23 -k RTR 
- -t 1.023328778 -s 7 -d 15 -p tcp -e 1060 -c 2 -a 0 -i 23 -k RTR
h -t 1.023328778 -s 7 -d 15 -p tcp -e 1060 -c 2 -a 0 -i 23 -k RTR
r -t 1.025354014 -s 10 -d 10 -p tcp -e 60 -c 2 -a 0 -i 13 -k AGT
+ -t 1.025354014 -s 10 -d -1 -p ack -e 40 -c 2 -a 0 -i 24 -k AGT 
- -t 1.025354014 -s 10 -d -1 -p ack -e 40 -c 2 -a 0 -i 24 -k AGT
h -t 1.025354014 -s 10 -d -1 -p ack -e 40 -c 2 -a 0 -i 24 -k AGT
+ -t 1.025354014 -s 10 -d 2 -p ack -e 60 -c 2 -a 0 -i 24 -k RTR 
- -t 1.025354014 -s 10 -d 2 -p ack -e 60 -c 2 -a 0 -i 24 -k RTR
h -t 1.025354014 -s 10 -d 2 -p ack -e 60 -c 2 -a 0 -i 24 -k RTR
r -t 1.035659249 -s 15 -d 15 -p tcp -e 1060 -c 2 -a 0 -i 22 -k AGT
+ -t 1.035659249 -s 15 -d -1 -p ack -e 40 -c 2 -a 0 -i 25 -k AGT 
- -t 1.035659249 -s 15 -d -1 -p ack -e 40 -c 2 -a 0 -i 25 -k AGT
h -t 1.035659249 -s 15 -d -1 -p ack -e 40 -c 2 -a 0 -i 25 -k AGT
+ -t 1.035659249 -s 15 -d 7 -p ack -e 60 -c 2 -a 0 -i 25 -k RTR 
- -t 1.035659249 -s 15 -d 7 -p ack -e 60 -c 2 -a 0 -i 25 -k RTR
h -t 1.035659249 -s 15 -d 7 -p ack -e 60 -c 2 -a 0 -i 25 -k RTR
r -t 1.037744485 -s 2 -d 2 -p ack -e 60 -c 2 -a 0 -i 24 -k AGT
+ -t 1.037744485 -s 2 -d -1 -p tcp -e 1040 -c 2 -a 0 -i 26 -k AGT 
- -t 1.037744485 -s 2 -d -1 -p tcp -e 1040 -c 2 -a 0 -i 26 -k AGT
h -t 1.037744485 -s 2 -d -1 -p tcp -e 1040 -c 2 -a 0 -i 26 -k AGT
+ -t 1.037744485 -s 2 -d 10 -p tcp -e 1060 -c 2 -a 0 -i 26 -k RTR 
- -t 1.037744485 -s 2 -d 10 -p tcp -e 1060 -c 2 -a 0 -i 26 -k RTR
h -t 1.037744485 -s 2 -d 10 -p tcp -e 1060 -c 2 -a 0 -i 26 -k RTR
+ -t 1.037744485 -s 2 -d -1 -p tcp -e 1040 -c 2 -a 0 -i 27 -k AGT 
- -t 1.037744485 -s 2 -d -1 -p tcp -e 1040 -c 2 -a 0 -i 27 -k AGT
h -t 1.037744485 -s 2 -d -1 -p tcp -e 1040 -c 2 -a 0 -i 27 -k AGT
+ -t 1.037744485 -s 2 -d 10 -p tcp -e 1060 -c 2 -a 0 -i 27 -k RTR 
- -t 1.037744485 -s 2 -d 10 -p tcp -e 1060 -c 2 -a 0 -i 27 -k RTR
h -t 1.037744485 -s 2 -d 10 -p tcp -e 1060 -c 2 -a 0 -i 27 -k RTR
r -t 1.047789721 -s 15 -d 15 -p tcp -e 1060 -c 2 -a 0 -i 23 -k AGT
+ -t 1.047789721 -s 15 -d -1 -p ack -e 40 -c 2 -a 0 -i 28 -k AGT 
- -t 1.047789721 -s 15 -d -1 -p ack -e 40 -c 2 -a 0 -i 28 -k AGT
h -t 1.047789721 -s 15 -d -1 -p ack -e 40 -c 2 -a 0 -i 28 -k AGT
+ -t 1.047789721 -s 15 -d 7 -p ack -e 60 -c 2 -a 0 -i 28 -k RTR 
- -t 1.047789721 -s 15 -d 7 -p ack -e 60 -c 2 -a 0 -i 28 -k RTR
h -t 1.047789721 -s 15 -d 7 -p ack -e 60 -c 2 -a 0 -i 28 -k RTR
r -t 1.057795248 -s 10 -d 10 -p tcp -e 1060 -c 2 -a 0 -i 26 -k AGT
+ -t 1.057795248 -s 10 -d -1 -p ack -e 40 -c 2 -a 0 -i 29 -k AGT 
- -t 1.057795248 -s 10 -d -1 -p ack -e 40 -c 2 -a 0 -i 29 -k AGT
h -t 1.057795248 -s 10 -d -1 -p ack -e 40 -c 2 -a 0 -i 29 -k AGT
+ -t 1.057795248 -s 10 -d 2 -p ack -e 60 -c 2 -a 0 -i 29 -k RTR 
- -t 1.057795248 -s 10 -d 2 -p ack -e 60 -c 2 -a 0 -i 29 -k RTR
h -t 1.057795248 -s 10 -d 2 -p ack -e 60 -c 2 -a 0 -i 29 -k RTR
r -t 1.067780581 -s 10 -d 10 -p tcp -e 1060 -c 2 -a 0 -i 27 -k AGT
+ -t 1.067780581 -s 10 -d -1 -p ack -e 40 -c 2 -a 0 -i 30 -k AGT 
- -t 1.067780581 -s 10 -d -1 -p ack -e 40 -c 2 -a 0 -i 30 -k AGT
h -t 1.067780581 -s 10 -d -1 -p ack -e 40 -c 2 -a 0 -i 30 -k AGT
+ -t 1.067780581 -s 10 -d 2 -p ack -e 60 -c 2 -a 0 -i 30 -k RTR 
- -t 1.067780581 -s 10 -d 2 -p ack -e 60 -c 2 -a 0 -i 30 -k RTR
h -t 1.067780581 -s 10 -d 2 -p ack -e 60 -c 2 -a 0 -i 30 -k RTR
r -t 1.069865581 -s 2 -d 2 -p ack -e 60 -c 2 -a 0 -i 29 -k AGT
+ -t 1.069865581 -s 2 -d -1 -p tcp -e 1040 -c 2 -a 0 -i 31 -k AGT 
- -t 1.069865581 -s 2 -d -1 -p tcp -e 1040 -c 2 -a 0 -i 31 -k AGT
h -t 1.069865581 -s 2 -d -1 -p tcp -e 1040 -c 2 -a 0 -i 31 -k AGT
+ -t 1.069865581 -s 2 -d 10 -p tcp -e 1060 -c 2 -a 0 -i 31 -k RTR 
- -t 1.069865581 -s 2 -d 10 -p tcp -e 1060 -c 2 -a 0 -i 31 -k RTR
h -t 1.069865581 -s 2 -d 10 -p tcp -e 1060 -c 2 -a 0 -i 31 -k RTR
+ -t 1.069865581 -s 2 -d -1 -p tcp -e 1040 -c 2 -a 0 -i 32 -k AGT 
- -t 1.069865581 -s 2 -d -1 -p tcp -e 1040 -c 2 -a 0 -i 32 -k AGT
h -t 1.069865581 -s 2 -d -1 -p tcp -e 1040 -c 2 -a 0 -i 32 -k AGT
+ -t 1.069865581 -s 2 -d 10 -p tcp -e 1060 -c 2 -a 0 -i 32 -k RTR 
- -t 1.069865581 -s 2 -d 10 -p tcp -e 1060 -c 2 -a 0 -i 32 -k RTR
h -t 1.069865581 -s 2 -d 10 -p tcp -e 1060 -c 2 -a 0 -i 32 -k RTR
r -t 1.071911108 -s 7 -d 7 -p ack -e 60 -c 2 -a 0 -i 25 -k AGT
+ -t 1.071911108 -s 7 -d -1 -p tcp -e 1040 -c 2 -a 0 -i 33 -k AGT 
- -t 1.071911108 -s 7 -d -1 -p tcp -e 1040 -c 2 -a 0 -i 33 -k AGT
h -t 1.071911108 -s 7 -d -1 -p tcp -e 1040 -c 2 -a 0 -i 33 -k AGT
+ -t 1.071911108 -s 7 -d 15 -p tcp -e 1060 -c 2 -a 0 -i 33 -k RTR 
- -t 1.071911108 -s 7 -d 15 -p tcp -e 1060 -c 2 -a 0 -i 33 -k RTR
h -t 1.071911108 -s 7 -d 15 -p tcp -e 1060 -c 2 -a 0 -i 33 -k RTR
+ -t 1.071911108 -s 7 -d -1 -p tcp -e 1040 -c 2 -a 0 -i 34 -k AGT 
- -t 1.071911108 -s 7 -d -1 -p tcp -e 1040 -c 2 -a 0 -i 34 -k AGT
h -t 1.071911108 -s 7 -d -1 -p tcp -e 1040 -c 2 -a 0 -i 34 -k AGT
+ -t 1.071911108 -s 7 -d 15 -p tcp -e 1060 -c 2 -a 0 -i 34 -k RTR 
- -t 1.071911108 -s 7 -d 15 -p tcp -e 1060 -c 2 -a 0 -i 34 -k RTR
h -t 1.071911108 -s 7 -d 15 -p tcp -e 1060 -c 2 -a 0 -i 34 -k RTR
r -t 1.081996108 -s 15 -d 15 -p tcp -e 1060 -c 2 -a 0 -i 33 -k AGT
+ -t 1.081996108 -s 15 -d -1 -p ack -e 40 -c 2 -a 0 -i 35 -k AGT 
- -t 1.081996108 -s 15 -d -1 -p ack -e 40 -c 2 -a 0 -i 35 -k AGT
h -t 1.081996108 -s 15 -d -1 -p ack -e 40 -c 2 -a 0 -i 35 -k AGT
+ -t 1.081996108 -s 15 -d 7 -p ack -e 60 -c 2 -a 0 -i 35 -k RTR 
- -t 1.081996108 -s 15 -d 7 -p ack -e 60 -c 2 -a 0 -i 35 -k RTR
h -t 1.081996108 -s 15 -d 7 -p ack -e 60 -c 2 -a 0 -i 35 -k RTR
r -t 1.092001441 -s 15 -d 15 -p tcp -e 1060 -c 2 -a 0 -i 34 -k AGT
+ -t 1.092001441 -s 15 -d -1 -p ack -e 40 -c 2 -a 0 -i 36 -k AGT 
- -t 1.092001441 -s 15 -d -1 -p ack -e 40 -c 2 -a 0 -i 36 -k AGT
h -t 1.092001441 -s 15 -d -1 -p ack -e 40 -c 2 -a 0 -i 36 -k AGT
+ -t 1.092001441 -s 15 -d 7 -p ack -e 60 -c 2 -a 0 -i 36 -k RTR 
- -t 1.092001441 -s 15 -d 7 -p ack -e 60 -c 2 -a 0 -i 36 -k RTR
h -t 1.092001441 -s 15 -d 7 -p ack -e 60 -c 2 -a 0 -i 36 -k RTR
r -t 1.094006913 -s 13 -d 13 -p tcp -e 60 -c 2 -a 0 -i 16 -k AGT
+ -t 1.094006913 -s 13 -d -1 -p ack -e 40 -c 2 -a 0 -i 37 -k AGT 
- -t 1.094006913 -s 13 -d -1 -p ack -e 40 -c 2 -a 0 -i 37 -k AGT
h -t 1.094006913 -s 13 -d -1 -p ack -e 40 -c 2 -a 0 -i 37 -k AGT
+ -t 1.094006913 -s 13 -d 5 -p ack -e 60 -c 2 -a 0 -i 37 -k RTR 
- -t 1.094006913 -s 13 -d 5 -p ack -e 60 -c 2 -a 0 -i 37 -k RTR
h -t 1.094006913 -s 13 -d 5 -p ack -e 60 -c 2 -a 0 -i 37 -k RTR
r -t 1.096051913 -s 5 -d 5 -p ack -e 60 -c 2 -a 0 -i 37 -k AGT
+ -t 1.096051913 -s 5 -d -1 -p tcp -e 1040 -c 2 -a 0 -i 38 -k AGT 
- -t 1.096051913 -s 5 -d -1 -p tcp -e 1040 -c 2 -a 0 -i 38 -k AGT
h -t 1.096051913 -s 5 -d -1 -p tcp -e 1040 -c 2 -a 0 -i 38 -k AGT
+ -t 1.096051913 -s 5 -d 13 -p tcp -e 1060 -c 2 -a 0 -i 38 -k RTR 
- -t 1.096051913 -s 5 -d 13 -p tcp -e 1060 -c 2 -a 0 -i 38 -k RTR
h -t 1.096051913 -s 5 -d 13 -p tcp -e 1060 -c 2 -a 0 -i 38 -k RTR
+ -t 1.096051913 -s 5 -d -1 -p tcp -e 1040 -c 2 -a 0 -i 39 -k AGT 
- -t 1.096051913 -s 5 -d -1 -p tcp -e 1040 -c 2 -a 0 -i 39 -k AGT
h -t 1.096051913 -s 5 -d -1 -p tcp -e 1040 -c 2 -a 0 -i 39 -k AGT
+ -t 1.096051913 -s 5 -d 13 -p tcp -e 1060 -c 2 -a 0 -i 39 -k RTR 
- -t 1.096051913 -s 5 -d 13 -p tcp -e 1060 -c 2 -a 0 -i 39 -k RTR
h -t 1.096051913 -s 5 -d 13 -p tcp -e 1060 -c 2 -a 0 -i 39 -k RTR
r -t 1.106256913 -s 13 -d 13 -p tcp -e 1060 -c 2 -a 0 -i 38 -k AGT
+ -t 1.106256913 -s 13 -d -1 -p ack -e 40 -c 2 -a 0 -i 40 -k AGT 
- -t 1.106256913 -s 13 -d -1 -p ack -e 40 -c 2 -a 0 -i 40 -k AGT
h -t 1.106256913 -s 13 -d -1 -p ack -e 40 -c 2 -a 0 -i 40 -k AGT
+ -t 1.106256913 -s 13 -d 5 -p ack -e 60 -c 2 -a 0 -i 40 -k RTR 
- -t 1.106256913 -s 13 -d 5 -p ack -e 60 -c 2 -a 0 -i 40 -k RTR
h -t 1.106256913 -s 13 -d 5 -p ack -e 60 -c 2 -a 0 -i 40 -k RTR
r -t 1.108261913 -s 5 -d 5 -p ack -e 60 -c 2 -a 0 -i 40 -k AGT
+ -t 1.108261913 -s 5 -d -1 -p tcp -e 1040 -c 2 -a 0 -i 41 -k AGT 
- -t 1.108261913 -s 5 -d -1 -p tcp -e 1040 -c 2 -a 0 -i 41 -k AGT
h -t 1.108261913 -s 5 -d -1 -p tcp -e 1040 -c 2 -a 0 -i 41 -k AGT
+ -t 1.108261913 -s 5 -d 13 -p tcp -e 1060 -c 2 -a 0 -i 41 -k RTR 
- -t 1.108261913 -s 5 -d 13 -p tcp -e 1060 -c 2 -a 0 -i 41 -k RTR
h -t 1.108261913 -s 5 -d 13 -p tcp -e 1060 -c 2 -a 0 -i 41 -k RTR
+ -t 1.108261913 -s 5 -d -1 -p tcp -e 1040 -c 2 -a 0 -i 42 -k AGT 
- -t 1.108261913 -s 5 -d -1 -p tcp -e 1040 -c 2 -a 0 -i 42 -k AGT
h -t 1.108261913 -s 5 -d -1 -p tcp -e 1040 -c 2 -a 0 -i 42 -k AGT
+ -t 1.108261913 -s 5 -d 13 -p tcp -e 1060 -c 2 -a 0 -i 42 -k RTR 
- -t 1.108261913 -s 5 -d 13 -p tcp -e 1060 -c 2 -a 0 -i 42 -k RTR
h -t 1.108261913 -s 5 -d 13 -p tcp -e 1060 -c 2 -a 0 -i 42 -k RTR
r -t 1.110307384 -s 7 -d 7 -p ack -e 60 -c 2 -a 0 -i 28 -k AGT
+ -t 1.110307384 -s 7 -d -1 -p tcp -e 1040 -c 2 -a 0 -i 43 -k AGT 
- -t 1.110307384 -s 7 -d -1 -p tcp -e 1040 -c 2 -a 0 -i 43 -k AGT
h -t 1.110307384 -s 7 -d -1 -p tcp -e 1040 -c 2 -a 0 -i 43 -k AGT
+ -t 1.110307384 -s 7 -d 15 -p tcp -e 1060 -c 2 -a 0 -i 43 -k RTR 
- -t 1.110307384 -s 7 -d 15 -p tcp -e 1060 -c 2 -a 0 -i 43 -k RTR
h -t 1.110307384 -s 7 -d 15 -p tcp -e 1060 -c 2 -a 0 -i 43 -k RTR
+ -t 1.110307384 -s 7 -d -1 -p tcp -e 1040 -c 2 -a 0 -i 44 -k AGT 
- -t 1.110307384 -s 7 -d -1 -p tcp -e 1040 -c 2 -a 0 -i 44 -k AGT
h -t 1.110307384 -s 7 -d -1 -p tcp -e 1040 -c 2 -a 0 -i 44 -k AGT
+ -t 1.110307384 -s 7 -d 15 -p tcp -e 1060 -c 2 -a 0 -i 44 -k RTR 
- -t 1.110307384 -s 7 -d 15 -p tcp -e 1060 -c 2 -a 0 -i 44 -k RTR
h -t 1.110307384 -s 7 -d 15 -p tcp -e 1060 -c 2 -a 0 -i 44 -k RTR
r -t 1.120332620 -s 10 -d 10 -p tcp -e 1060 -c 2 -a 0 -i 31 -k AGT
+ -t 1.120332620 -s 10 -d -1 -p ack -e 40 -c 2 -a 0 -i 45 -k AGT 
- -t 1.120332620 -s 10 -d -1 -p ack -e 40 -c 2 -a 0 -i 45 -k AGT
h -t 1.120332620 -s 10 -d -1 -p ack -e 40 -c 2 -a 0 -i 45 -k AGT
+ -t 1.120332620 -s 10 -d 2 -p ack -e 60 -c 2 -a 0 -i 45 -k RTR 
- -t 1.120332620 -s 10 -d 2 -p ack -e 60 -c 2 -a 0 -i 45 -k RTR
h -t 1.120332620 -s 10 -d 2 -p ack -e 60 -c 2 -a 0 -i 45 -k RTR
r -t 1.122397620 -s 2 -d 2 -p ack -e 60 -c 2 -a 0 -i 30 -k AGT
+ -t 1.122397620 -s 2 -d -1 -p tcp -e 1040 -c 2 -a 0 -i 46 -k AGT 
- -t 1.122397620 -s 2 -d -1 -p tcp -e 1040 -c 2 -a 0 -i 46 -k AGT
h -t 1.122397620 -s 2 -d -1 -p tcp -e 1040 -c 2 -a 0 -i 46 -k AGT
+ -t 1.122397620 -s 2 -d 10 -p tcp -e 1060 -c 2 -a 0 -i 46 -k RTR 
- -t 1.122397620 -s 2 -d 10 -p tcp -e 1060 -c 2 -a 0 -i 46 -k RTR
h -t 1.122397620 -s 2 -d 10 -p tcp -e 1060 -c 2 -a 0 -i 46 -k RTR
+ -t 1.122397620 -s 2 -d -1 -p tcp -e 1040 -c 2 -a 0 -i 47 -k AGT 
- -t 1.122397620 -s 2 -d -1 -p tcp -e 1040 -c 2 -a 0 -i 47 -k AGT
h -t 1.122397620 -s 2 -d -1 -p tcp -e 1040 -c 2 -a 0 -i 47 -k AGT
+ -t 1.122397620 -s 2 -d 10 -p tcp -e 1060 -c 2 -a 0 -i 47 -k RTR 
- -t 1.122397620 -s 2 -d 10 -p tcp -e 1060 -c 2 -a 0 -i 47 -k RTR
h -t 1.122397620 -s 2 -d 10 -p tcp -e 1060 -c 2 -a 0 -i 47 -k RTR
r -t 1.124562953 -s 2 -d 2 -p ack -e 60 -c 2 -a 0 -i 45 -k AGT
+ -t 1.124562953 -s 2 -d -1 -p tcp -e 1040 -c 2 -a 0 -i 48 -k AGT 
- -t 1.124562953 -s 2 -d -1 -p tcp -e 1040 -c 2 -a 0 -i 48 -k AGT
h -t 1.124562953 -s 2 -d -1 -p tcp -e 1040 -c 2 -a 0 -i 48 -k AGT
+ -t 1.124562953 -s 2 -d 10 -p tcp -e 1060 -c 2 -a 0 -i 48 -k RTR 
- -t 1.124562953 -s 2 -d 10 -p tcp -e 1060 -c 2 -a 0 -i 48 -k RTR
h -t 1.124562953 -s 2 -d 10 -p tcp -e 1060 -c 2 -a 0 -i 48 -k RTR