s 1.000000000 _4_ AGT  --- 0 tcp 40 [0 0 0 0] ------- [4:0 18:0 32 0] [0 0] 0 0
r 1.000000000 _4_ RTR  --- 0 tcp 40 [0 0 0 0] ------- [4:0 18:0 32 0] [0 0] 0 0
s 1.000000000 _4_ AGT  --- 1 tcp 40 [0 0 0 0] ------- [4:1 12:0 32 0] [0 0] 0 0
r 1.000000000 _4_ RTR  --- 1 tcp 40 [0 0 0 0] ------- [4:1 12:0 32 0] [0 0] 0 0
s 1.000000000 _4_ AGT  --- 2 tcp 40 [0 0 0 0] ------- [4:2 12:1 32 0] [0 0] 0 0
r 1.000000000 _4_ RTR  --- 2 tcp 40 [0 0 0 0] ------- [4:2 12:1 32 0] [0 0] 0 0
s 1.000000000 _4_ AGT  --- 3 tcp 40 [0 0 0 0] ------- [4:3 8:0 32 0] [0 0] 0 0
r 1.000000000 _4_ RTR  --- 3 tcp 40 [0 0 0 0] ------- [4:3 8:0 32 0] [0 0] 0 0
s 1.000000000 _4_ AGT  --- 4 tcp 40 [0 0 0 0] ------- [4:4 9:0 32 0] [0 0] 0 0
r 1.000000000 _4_ RTR  --- 4 tcp 40 [0 0 0 0] ------- [4:4 9:0 32 0] [0 0] 0 0
s 1.000000000 _4_ AGT  --- 5 tcp 40 [0 0 0 0] ------- [4:5 1:0 32 0] [0 0] 0 0
r 1.000000000 _4_ RTR  --- 5 tcp 40 [0 0 0 0] ------- [4:5 1:0 32 0] [0 0] 0 0
s 1.000000000 _4_ AGT  --- 6 tcp 40 [0 0 0 0] ------- [4:6 1:1 32 0] [0 0] 0 0
r 1.000000000 _4_ RTR  --- 6 tcp 40 [0 0 0 0] ------- [4:6 1:1 32 0] [0 0] 0 0
s 1.000000000 _4_ AGT  --- 7 tcp 40 [0 0 0 0] ------- [4:7 0:0 32 0] [0 0] 0 0
r 1.000000000 _4_ RTR  --- 7 tcp 40 [0 0 0 0] ------- [4:7 0:0 32 0] [0 0] 0 0
s 1.000000000 _4_ AGT  --- 8 tcp 40 [0 0 0 0] ------- [4:8 16:0 32 0] [0 0] 0 0
r 1.000000000 _4_ RTR  --- 8 tcp 40 [0 0 0 0] ------- [4:8 16:0 32 0] [0 0] 0 0
s 1.000000000 _4_ AGT  --- 9 tcp 40 [0 0 0 0] ------- [4:9 11:0 32 0] [0 0] 0 0
r 1.000000000 _4_ RTR  --- 9 tcp 40 [0 0 0 0] ------- [4:9 11:0 32 0] [0 0] 0 0
s 1.000000000 _4_ AGT  --- 10 tcp 40 [0 0 0 0] ------- [4:10 11:1 32 0] [0 0] 0 0
r 1.000000000 _4_ RTR  --- 10 tcp 40 [0 0 0 0] ------- [4:10 11:1 32 0] [0 0] 0 0
s 1.000000000 _4_ AGT  --- 11 tcp 40 [0 0 0 0] ------- [4:11 19:0 32 0] [0 0] 0 0
r 1.000000000 _4_ RTR  --- 11 tcp 40 [0 0 0 0] ------- [4:11 19:0 32 0] [0 0] 0 0
s 1.000000000 _4_ AGT  --- 12 tcp 40 [0 0 0 0] ------- [4:12 7:0 32 0] [0 0] 0 0
r 1.000000000 _4_ RTR  --- 12 tcp 40 [0 0 0 0] ------- [4:12 7:0 32 0] [0 0] 0 0
s 1.000000000 _4_ AGT  --- 13 tcp 40 [0 0 0 0] ------- [4:13 3:0 32 0] [0 0] 0 0
r 1.000000000 _4_ RTR  --- 13 tcp 40 [0 0 0 0] ------- [4:13 3:0 32 0] [0 0] 0 0
s 1.000000000 _4_ AGT  --- 14 tcp 40 [0 0 0 0] ------- [4:14 6:0 32 0] [0 0] 0 0
r 1.000000000 _4_ RTR  --- 14 tcp 40 [0 0 0 0] ------- [4:14 6:0 32 0] [0 0] 0 0
s 1.000000000 _4_ AGT  --- 15 tcp 40 [0 0 0 0] ------- [4:15 13:0 32 0] [0 0] 0 0
r 1.000000000 _4_ RTR  --- 15 tcp 40 [0 0 0 0] ------- [4:15 13:0 32 0] [0 0] 0 0
s 1.000000000 _4_ AGT  --- 16 tcp 40 [0 0 0 0] ------- [4:16 17:0 32 0] [0 0] 0 0
r 1.000000000 _4_ RTR  --- 16 tcp 40 [0 0 0 0] ------- [4:16 17:0 32 0] [0 0] 0 0
s 1.000000000 _4_ AGT  --- 17 tcp 40 [0 0 0 0] ------- [4:17 3:1 32 0] [0 0] 0 0
r 1.000000000 _4_ RTR  --- 17 tcp 40 [0 0 0 0] ------- [4:17 3:1 32 0] [0 0] 0 0
s 1.000000000 _4_ AGT  --- 18 tcp 40 [0 0 0 0] ------- [4:18 13:1 32 0] [0 0] 0 0
r 1.000000000 _4_ RTR  --- 18 tcp 40 [0 0 0 0] ------- [4:18 13:1 32 0] [0 0] 0 0
s 1.000000000 _4_ AGT  --- 19 tcp 40 [0 0 0 0] ------- [4:19 8:1 32 0] [0 0] 0 0
r 1.000000000 _4_ RTR  --- 19 tcp 40 [0 0 0 0] ------- [4:19 8:1 32 0] [0 0] 0 0
s 1.000000000 _4_ RTR  --- 0 AODV 48 [0 0 0 0] ------- [4:255 -1:255 30 0] [0x2 1 1 [18 0] [4 4]] (REQUEST)
s 1.000000000 _4_ RTR  --- 0 AODV 48 [0 0 0 0] ------- [4:255 -1:255 30 0] [0x2 1 2 [12 0] [4 6]] (REQUEST)
s 1.000000000 _4_ RTR  --- 0 AODV 48 [0 0 0 0] ------- [4:255 -1:255 30 0] [0x2 1 3 [8 0] [4 8]] (REQUEST)
s 1.000000000 _4_ RTR  --- 0 AODV 48 [0 0 0 0] ------- [4:255 -1:255 30 0] [0x2 1 4 [9 0] [4 10]] (REQUEST)
s 1.000000000 _4_ RTR  --- 0 AODV 48 [0 0 0 0] ------- [4:255 -1:255 30 0] [0x2 1 5 [1 0] [4 12]] (REQUEST)
s 1.000000000 _4_ RTR  --- 0 AODV 48 [0 0 0 0] ------- [4:255 -1:255 30 0] [0x2 1 6 [0 0] [4 14]] (REQUEST)
s 1.000000000 _4_ RTR  --- 0 AODV 48 [0 0 0 0] ------- [4:255 -1:255 30 0] [0x2 1 7 [16 0] [4 16]] (REQUEST)
s 1.000000000 _4_ RTR  --- 0 AODV 48 [0 0 0 0] ------- [4:255 -1:255 30 0] [0x2 1 8 [11 0] [4 18]] (REQUEST)
s 1.000000000 _4_ RTR  --- 0 AODV 48 [0 0 0 0] ------- [4:255 -1:255 30 0] [0x2 1 9 [19 0] [4 20]] (REQUEST)
s 1.000000000 _4_ RTR  --- 0 AODV 48 [0 0 0 0] ------- [4:255 -1:255 30 0] [0x2 1 10 [7 0] [4 22]] (REQUEST)
s 1.000000000 _4_ RTR  --- 0 AODV 48 [0 0 0 0] ------- [4:255 -1:255 30 0] [0x2 1 11 [3 0] [4 24]] (REQUEST)
s 1.000000000 _4_ RTR  --- 0 AODV 48 [0 0 0 0] ------- [4:255 -1:255 30 0] [0x2 1 12 [6 0] [4 26]] (REQUEST)
s 1.000000000 _4_ RTR  --- 0 AODV 48 [0 0 0 0] ------- [4:255 -1:255 30 0] [0x2 1 13 [13 0] [4 28]] (REQUEST)
s 1.000000000 _4_ RTR  --- 0 AODV 48 [0 0 0 0] ------- [4:255 -1:255 30 0] [0x2 1 14 [17 0] [4 30]] (REQUEST)
r 1.003922167 _0_ RTR  --- 0 AODV 48 [0 ffffffff 4 800] ------- [4:255 -1:255 30 0] [0x2 1 1 [18 0] [4 4]] (REQUEST)
r 1.003922167 _8_ RTR  --- 0 AODV 48 [0 ffffffff 4 800] ------- [4:255 -1:255 30 0] [0x2 1 1 [18 0] [4 4]] (REQUEST)
r 1.003922167 _5_ RTR  --- 0 AODV 48 [0 ffffffff 4 800] ------- [4:255 -1:255 30 0] [0x2 1 1 [18 0] [4 4]] (REQUEST)
r 1.003922236 _1_ RTR  --- 0 AODV 48 [0 ffffffff 4 800] ------- [4:255 -1:255 30 0] [0x2 1 1 [18 0] [4 4]] (REQUEST)
r 1.003922236 _9_ RTR  --- 0 AODV 48 [0 ffffffff 4 800] ------- [4:255 -1:255 30 0] [0x2 1 1 [18 0] [4 4]] (REQUEST)
r 1.003922333 _12_ RTR  --- 0 AODV 48 [0 ffffffff 4 800] ------- [4:255 -1:255 30 0] [0x2 1 1 [18 0] [4 4]] (REQUEST)
r 1.003922333 _6_ RTR  --- 0 AODV 48 [0 ffffffff 4 800] ------- [4:255 -1:255 30 0] [0x2 1 1 [18 0] [4 4]] (REQUEST)
r 1.003922373 _13_ RTR  --- 0 AODV 48 [0 ffffffff 4 800] ------- [4:255 -1:255 30 0] [0x2 1 1 [18 0] [4 4]] (REQUEST)
r 1.003922373 _2_ RTR  --- 0 AODV 48 [0 ffffffff 4 800] ------- [4:255 -1:255 30 0] [0x2 1 1 [18 0] [4 4]] (REQUEST)
r 1.003922373 _10_ RTR  --- 0 AODV 48 [0 ffffffff 4 800] ------- [4:255 -1:255 30 0] [0x2 1 1 [18 0] [4 4]] (REQUEST)
r 1.003922471 _14_ RTR  --- 0 AODV 48 [0 ffffffff 4 800] ------- [4:255 -1:255 30 0] [0x2 1 1 [18 0] [4 4]] (REQUEST)
r 1.003922500 _16_ RTR  --- 0 AODV 48 [0 ffffffff 4 800] ------- [4:255 -1:255 30 0] [0x2 1 1 [18 0] [4 4]] (REQUEST)
r 1.003922500 _7_ RTR  --- 0 AODV 48 [0 ffffffff 4 800] ------- [4:255 -1:255 30 0] [0x2 1 1 [18 0] [4 4]] (REQUEST)
r 1.003922527 _17_ RTR  --- 0 AODV 48 [0 ffffffff 4 800] ------- [4:255 -1:255 30 0] [0x2 1 1 [18 0] [4 4]] (REQUEST)
r 1.003922527 _3_ RTR  --- 0 AODV 48 [0 ffffffff 4 800] ------- [4:255 -1:255 30 0] [0x2 1 1 [18 0] [4 4]] (REQUEST)
r 1.003922527 _11_ RTR  --- 0 AODV 48 [0 ffffffff 4 800] ------- [4:255 -1:255 30 0] [0x2 1 1 [18 0] [4 4]] (REQUEST)
r 1.003922601 _18_ RTR  --- 0 AODV 48 [0 ffffffff 4 800] ------- [4:255 -1:255 30 0] [0x2 1 1 [18 0] [4 4]] (REQUEST)
r 1.003922601 _15_ RTR  --- 0 AODV 48 [0 ffffffff 4 800] ------- [4:255 -1:255 30 0] [0x2 1 1 [18 0] [4 4]] (REQUEST)
s 1.003922601 _18_ RTR  --- 0 AODV 44 [0 0 0 0] ------- [18:255 4:255 30 4] [0x4 1 [18 4] 10.000000] (REPLY)
r 1.003922707 _19_ RTR  --- 0 AODV 48 [0 ffffffff 4 800] ------- [4:255 -1:255 30 0] [0x2 1 1 [18 0] [4 4]] (REQUEST)
s 1.004423667 _6_ RTR  --- 0 AODV 48 [0 ffffffff 4 800] ------- [6:255 -1:255 29 0] [0x2 2 1 [18 0] [4 4]] (REQUEST)
s 1.004804501 _16_ RTR  --- 0 AODV 48 [0 ffffffff 4 800] ------- [16:255 -1:255 29 0] [0x2 2 1 [18 0] [4 4]] (REQUEST)
s 1.004835805 _9_ RTR  --- 0 AODV 48 [0 ffffffff 4 800] ------- [9:255 -1:255 29 0] [0x2 2 1 [18 0] [4 4]] (REQUEST)
s 1.005709445 _5_ RTR  --- 0 AODV 48 [0 ffffffff 4 800] ------- [5:255 -1:255 29 0] [0x2 2 1 [18 0] [4 4]] (REQUEST)
s 1.005989507 _0_ RTR  --- 0 AODV 48 [0 ffffffff 4 800] ------- [0:255 -1:255 29 0] [0x2 2 1 [18 0] [4 4]] (REQUEST)
s 1.008134672 _14_ RTR  --- 0 AODV 48 [0 ffffffff 4 800] ------- [14:255 -1:255 29 0] [0x2 2 1 [18 0] [4 4]] (REQUEST)
s 1.008839550 _12_ RTR  --- 0 AODV 48 [0 ffffffff 4 800] ------- [12:255 -1:255 29 0] [0x2 2 1 [18 0] [4 4]] (REQUEST)
r 1.009046668 _12_ RTR  --- 0 AODV 48 [0 ffffffff 10 800] ------- [16:255 -1:255 29 0] [0x2 2 1 [18 0] [4 4]] (REQUEST)
r 1.009046668 _17_ RTR  --- 0 AODV 48 [0 ffffffff 10 800] ------- [16:255 -1:255 29 0] [0x2 2 1 [18 0] [4 4]] (REQUEST)
r 1.009046737 _13_ RTR  --- 0 AODV 48 [0 ffffffff 10 800] ------- [16:255 -1:255 29 0] [0x2 2 1 [18 0] [4 4]] (REQUEST)
r 1.009046835 _8_ RTR  --- 0 AODV 48 [0 ffffffff 10 800] ------- [16:255 -1:255 29 0] [0x2 2 1 [18 0] [4 4]] (REQUEST)
r 1.009046835 _18_ RTR  --- 0 AODV 48 [0 ffffffff 10 800] ------- [16:255 -1:255 29 0] [0x2 2 1 [18 0] [4 4]] (REQUEST)
r 1.009046874 _9_ RTR  --- 0 AODV 48 [0 ffffffff 10 800] ------- [16:255 -1:255 29 0] [0x2 2 1 [18 0] [4 4]] (REQUEST)
r 1.009046874 _14_ RTR  --- 0 AODV 48 [0 ffffffff 10 800] ------- [16:255 -1:255 29 0] [0x2 2 1 [18 0] [4 4]] (REQUEST)
r 1.009046973 _10_ RTR  --- 0 AODV 48 [0 ffffffff 10 800] ------- [16:255 -1:255 29 0] [0x2 2 1 [18 0] [4 4]] (REQUEST)
r 1.009047001 _4_ RTR  --- 0 AODV 48 [0 ffffffff 10 800] ------- [16:255 -1:255 29 0] [0x2 2 1 [18 0] [4 4]] (REQUEST)
r 1.009047001 _19_ RTR  --- 0 AODV 48 [0 ffffffff 10 800] ------- [16:255 -1:255 29 0] [0x2 2 1 [18 0] [4 4]] (REQUEST)
r 1.009047029 _5_ RTR  --- 0 AODV 48 [0 ffffffff 10 800] ------- [16:255 -1:255 29 0] [0x2 2 1 [18 0] [4 4]] (REQUEST)
r 1.009047029 _15_ RTR  --- 0 AODV 48 [0 ffffffff 10 800] ------- [16:255 -1:255 29 0] [0x2 2 1 [18 0] [4 4]] (REQUEST)
r 1.009047102 _6_ RTR  --- 0 AODV 48 [0 ffffffff 10 800] ------- [16:255 -1:255 29 0] [0x2 2 1 [18 0] [4 4]] (REQUEST)
r 1.009047102 _11_ RTR  --- 0 AODV 48 [0 ffffffff 10 800] ------- [16:255 -1:255 29 0] [0x2 2 1 [18 0] [4 4]] (REQUEST)
r 1.009047168 _0_ RTR  --- 0 AODV 48 [0 ffffffff 10 800] ------- [16:255 -1:255 29 0] [0x2 2 1 [18 0] [4 4]] (REQUEST)
r 1.009047189 _1_ RTR  --- 0 AODV 48 [0 ffffffff 10 800] ------- [16:255 -1:255 29 0] [0x2 2 1 [18 0] [4 4]] (REQUEST)
r 1.009047209 _7_ RTR  --- 0 AODV 48 [0 ffffffff 10 800] ------- [16:255 -1:255 29 0] [0x2 2 1 [18 0] [4 4]] (REQUEST)
r 1.009047247 _2_ RTR  --- 0 AODV 48 [0 ffffffff 10 800] ------- [16:255 -1:255 29 0] [0x2 2 1 [18 0] [4 4]] (REQUEST)
r 1.009047335 _3_ RTR  --- 0 AODV 48 [0 ffffffff 10 800] ------- [16:255 -1:255 29 0] [0x2 2 1 [18 0] [4 4]] (REQUEST)
s 1.009251358 _2_ RTR  --- 0 AODV 48 [0 ffffffff 4 800] ------- [2:255 -1:255 29 0] [0x2 2 1 [18 0] [4 4]] (REQUEST)
s 1.009783726 _15_ RTR  --- 0 AODV 48 [0 ffffffff 4 800] ------- [15:255 -1:255 29 0] [0x2 2 1 [18 0] [4 4]] (REQUEST)
s 1.010871539 _8_ RTR  --- 0 AODV 48 [0 ffffffff 4 800] ------- [8:255 -1:255 29 0] [0x2 2 1 [18 0] [4 4]] (REQUEST)
s 1.011202945 _3_ RTR  --- 0 AODV 48 [0 ffffffff 4 800] ------- [3:255 -1:255 29 0] [0x2 2 1 [18 0] [4 4]] (REQUEST)
s 1.011273284 _10_ RTR  --- 0 AODV 48 [0 ffffffff 4 800] ------- [10:255 -1:255 29 0] [0x2 2 1 [18 0] [4 4]] (REQUEST)
s 1.011281112 _19_ RTR  --- 0 AODV 48 [0 ffffffff 4 800] ------- [19:255 -1:255 29 0] [0x2 2 1 [18 0] [4 4]] (REQUEST)
s 1.012066502 _7_ RTR  --- 0 AODV 48 [0 ffffffff 4 800] ------- [7:255 -1:255 29 0] [0x2 2 1 [18 0] [4 4]] (REQUEST)
s 1.012573427 _13_ RTR  --- 0 AODV 48 [0 ffffffff 4 800] ------- [13:255 -1:255 29 0] [0x2 2 1 [18 0] [4 4]] (REQUEST)
s 1.012668990 _11_ RTR  --- 0 AODV 48 [0 ffffffff 4 800] ------- [11:255 -1:255 29 0] [0x2 2 1 [18 0] [4 4]] (REQUEST)
s 1.012951003 _17_ RTR  --- 0 AODV 48 [0 ffffffff 4 800] ------- [17:255 -1:255 29 0] [0x2 2 1 [18 0] [4 4]] (REQUEST)
s 1.013682303 _1_ RTR  --- 0 AODV 48 [0 ffffffff 4 800] ------- [1:255 -1:255 29 0] [0x2 2 1 [18 0] [4 4]] (REQUEST)
r 1.014261525 _1_ RTR  --- 0 AODV 48 [0 ffffffff 2 800] ------- [2:255 -1:255 29 0] [0x2 2 1 [18 0] [4 4]] (REQUEST)
r 1.014261525 _6_ RTR  --- 0 AODV 48 [0 ffffffff 2 800] ------- [2:255 -1:255 29 0] [0x2 2 1 [18 0] [4 4]] (REQUEST)
r 1.014261525 _3_ RTR  --- 0 AODV 48 [0 ffffffff 2 800] ------- [2:255 -1:255 29 0] [0x2 2 1 [18 0] [4 4]] (REQUEST)
r 1.014261594 _5_ RTR  --- 0 AODV 48 [0 ffffffff 2 800] ------- [2:255 -1:255 29 0] [0x2 2 1 [18 0] [4 4]] (REQUEST)
r 1.014261594 _7_ RTR  --- 0 AODV 48 [0 ffffffff 2 800] ------- [2:255 -1:255 29 0] [0x2 2 1 [18 0] [4 4]] (REQUEST)
r 1.014261692 _0_ RTR  --- 0 AODV 48 [0 ffffffff 2 800] ------- [2:255 -1:255 29 0] [0x2 2 1 [18 0] [4 4]] (REQUEST)
r 1.014261692 _10_ RTR  --- 0 AODV 48 [0 ffffffff 2 800] ------- [2:255 -1:255 29 0] [0x2 2 1 [18 0] [4 4]] (REQUEST)
r 1.014261731 _9_ RTR  --- 0 AODV 48 [0 ffffffff 2 800] ------- [2:255 -1:255 29 0] [0x2 2 1 [18 0] [4 4]] (REQUEST)
r 1.014261731 _4_ RTR  --- 0 AODV 48 [0 ffffffff 2 800] ------- [2:255 -1:255 29 0] [0x2 2 1 [18 0] [4 4]] (REQUEST)
r 1.014261731 _11_ RTR  --- 0 AODV 48 [0 ffffffff 2 800] ------- [2:255 -1:255 29 0] [0x2 2 1 [18 0] [4 4]] (REQUEST)
r 1.014261830 _8_ RTR  --- 0 AODV 48 [0 ffffffff 2 800] ------- [2:255 -1:255 29 0] [0x2 2 1 [18 0] [4 4]] (REQUEST)
r 1.014261858 _14_ RTR  --- 0 AODV 48 [0 ffffffff 2 800] ------- [2:255 -1:255 29 0] [0x2 2 1 [18 0] [4 4]] (REQUEST)
r 1.014261885 _13_ RTR  --- 0 AODV 48 [0 ffffffff 2 800] ------- [2:255 -1:255 29 0] [0x2 2 1 [18 0] [4 4]] (REQUEST)
r 1.014261885 _15_ RTR  --- 0 AODV 48 [0 ffffffff 2 800] ------- [2:255 -1:255 29 0] [0x2 2 1 [18 0] [4 4]] (REQUEST)
r 1.014261959 _12_ RTR  --- 0 AODV 48 [0 ffffffff 2 800] ------- [2:255 -1:255 29 0] [0x2 2 1 [18 0] [4 4]] (REQUEST)
r 1.014262025 _18_ RTR  --- 0 AODV 48 [0 ffffffff 2 800] ------- [2:255 -1:255 29 0] [0x2 2 1 [18 0] [4 4]] (REQUEST)
r 1.014262045 _17_ RTR  --- 0 AODV 48 [0 ffffffff 2 800] ------- [2:255 -1:255 29 0] [0x2 2 1 [18 0] [4 4]] (REQUEST)
r 1.014262045 _19_ RTR  --- 0 AODV 48 [0 ffffffff 2 800] ------- [2:255 -1:255 29 0] [0x2 2 1 [18 0] [4 4]] (REQUEST)
r 1.014262104 _16_ RTR  --- 0 AODV 48 [0 ffffffff 2 800] ------- [2:255 -1:255 29 0] [0x2 2 1 [18 0] [4 4]] (REQUEST)
r 1.016475451 _14_ RTR  --- 0 AODV 48 [0 ffffffff a 800] ------- [10:255 -1:255 29 0] [0x2 2 1 [18 0] [4 4]] (REQUEST)
r 1.016475451 _11_ RTR  --- 0 AODV 48 [0 ffffffff a 800] ------- [10:255 -1:255 29 0] [0x2 2 1 [18 0] [4 4]] (REQUEST)
r 1.016475520 _13_ RTR  --- 0 AODV 48 [0 ffffffff a 800] ------- [10:255 -1:255 29 0] [0x2 2 1 [18 0] [4 4]] (REQUEST)
r 1.016475520 _15_ RTR  --- 0 AODV 48 [0 ffffffff a 800] ------- [10:255 -1:255 29 0] [0x2 2 1 [18 0] [4 4]] (REQUEST)
r 1.016475617 _18_ RTR  --- 0 AODV 48 [0 ffffffff a 800] ------- [10:255 -1:255 29 0] [0x2 2 1 [18 0] [4 4]] (REQUEST)
r 1.016475657 _17_ RTR  --- 0 AODV 48 [0 ffffffff a 800] ------- [10:255 -1:255 29 0] [0x2 2 1 [18 0] [4 4]] (REQUEST)
r 1.016475657 _19_ RTR  --- 0 AODV 48 [0 ffffffff a 800] ------- [10:255 -1:255 29 0] [0x2 2 1 [18 0] [4 4]] (REQUEST)
r 1.016644469 _0_ RTR  --- 0 AODV 48 [0 ffffffff 1 800] ------- [1:255 -1:255 29 0] [0x2 2 1 [18 0] [4 4]] (REQUEST)
r 1.018889706 _4_ RTR  --- 0 AODV 48 [0 ffffffff 8 800] ------- [8:255 -1:255 29 0] [0x2 2 1 [18 0] [4 4]] (REQUEST)
r 1.018889706 _12_ RTR  --- 0 AODV 48 [0 ffffffff 8 800] ------- [8:255 -1:255 29 0] [0x2 2 1 [18 0] [4 4]] (REQUEST)
r 1.018889775 _5_ RTR  --- 0 AODV 48 [0 ffffffff 8 800] ------- [8:255 -1:255 29 0] [0x2 2 1 [18 0] [4 4]] (REQUEST)
r 1.018889873 _0_ RTR  --- 0 AODV 48 [0 ffffffff 8 800] ------- [8:255 -1:255 29 0] [0x2 2 1 [18 0] [4 4]] (REQUEST)
r 1.019081892 _11_ RTR  --- 0 AODV 48 [0 ffffffff f 800] ------- [15:255 -1:255 29 0] [0x2 2 1 [18 0] [4 4]] (REQUEST)
r 1.019081892 _19_ RTR  --- 0 AODV 48 [0 ffffffff f 800] ------- [15:255 -1:255 29 0] [0x2 2 1 [18 0] [4 4]] (REQUEST)
r 1.019081961 _18_ RTR  --- 0 AODV 48 [0 ffffffff f 800] ------- [15:255 -1:255 29 0] [0x2 2 1 [18 0] [4 4]] (REQUEST)
r 1.022191594 _17_ RTR  --- 0 AODV 48 [0 ffffffff d 800] ------- [13:255 -1:255 29 0] [0x2 2 1 [18 0] [4 4]] (REQUEST)
r 1.022191594 _14_ RTR  --- 0 AODV 48 [0 ffffffff d 800] ------- [13:255 -1:255 29 0] [0x2 2 1 [18 0] [4 4]] (REQUEST)
r 1.022191663 _16_ RTR  --- 0 AODV 48 [0 ffffffff d 800] ------- [13:255 -1:255 29 0] [0x2 2 1 [18 0] [4 4]] (REQUEST)
r 1.022191663 _18_ RTR  --- 0 AODV 48 [0 ffffffff d 800] ------- [13:255 -1:255 29 0] [0x2 2 1 [18 0] [4 4]] (REQUEST)
r 1.022191761 _15_ RTR  --- 0 AODV 48 [0 ffffffff d 800] ------- [13:255 -1:255 29 0] [0x2 2 1 [18 0] [4 4]] (REQUEST)
r 1.022191800 _19_ RTR  --- 0 AODV 48 [0 ffffffff d 800] ------- [13:255 -1:255 29 0] [0x2 2 1 [18 0] [4 4]] (REQUEST)
r 1.022290167 _0_ RTR  --- 0 AODV 48 [0 ffffffff 4 800] ------- [4:255 -1:255 30 0] [0x2 1 13 [13 0] [4 28]] (REQUEST)
r 1.022290236 _1_ RTR  --- 0 AODV 48 [0 ffffffff 4 800] ------- [4:255 -1:255 30 0] [0x2 1 13 [13 0] [4 28]] (REQUEST)
r 1.026857170 _16_ RTR  --- 0 AODV 48 [0 ffffffff 11 800] ------- [17:255 -1:255 29 0] [0x2 2 1 [18 0] [4 4]] (REQUEST)
r 1.026857239 _12_ RTR  --- 0 AODV 48 [0 ffffffff 11 800] ------- [17:255 -1:255 29 0] [0x2 2 1 [18 0] [4 4]] (REQUEST)
s 1.026889973 _1_ RTR  --- 0 AODV 48 [0 ffffffff 4 800] ------- [1:255 -1:255 29 0] [0x2 2 13 [13 0] [4 28]] (REQUEST)
r 1.029109972 _5_ RTR  --- 0 AODV 48 [0 ffffffff 9 800] ------- [9:255 -1:255 29 0] [0x2 2 1 [18 0] [4 4]] (REQUEST)
r 1.029109972 _8_ RTR  --- 0 AODV 48 [0 ffffffff 9 800] ------- [9:255 -1:255 29 0] [0x2 2 1 [18 0] [4 4]] (REQUEST)
r 1.029109972 _13_ RTR  --- 0 AODV 48 [0 ffffffff 9 800] ------- [9:255 -1:255 29 0] [0x2 2 1 [18 0] [4 4]] (REQUEST)
r 1.029109972 _10_ RTR  --- 0 AODV 48 [0 ffffffff 9 800] ------- [9:255 -1:255 29 0] [0x2 2 1 [18 0] [4 4]] (REQUEST)
r 1.029110041 _12_ RTR  --- 0 AODV 48 [0 ffffffff 9 800] ------- [9:255 -1:255 29 0] [0x2 2 1 [18 0] [4 4]] (REQUEST)
r 1.029110041 _4_ RTR  --- 0 AODV 48 [0 ffffffff 9 800] ------- [9:255 -1:255 29 0] [0x2 2 1 [18 0] [4 4]] (REQUEST)
r 1.029110041 _6_ RTR  --- 0 AODV 48 [0 ffffffff 9 800] ------- [9:255 -1:255 29 0] [0x2 2 1 [18 0] [4 4]] (REQUEST)
r 1.029110041 _14_ RTR  --- 0 AODV 48 [0 ffffffff 9 800] ------- [9:255 -1:255 29 0] [0x2 2 1 [18 0] [4 4]] (REQUEST)
r 1.029110138 _1_ RTR  --- 0 AODV 48 [0 ffffffff 9 800] ------- [9:255 -1:255 29 0] [0x2 2 1 [18 0] [4 4]] (REQUEST)
r 1.029110138 _17_ RTR  --- 0 AODV 48 [0 ffffffff 9 800] ------- [9:255 -1:255 29 0] [0x2 2 1 [18 0] [4 4]] (REQUEST)
r 1.029110138 _11_ RTR  --- 0 AODV 48 [0 ffffffff 9 800] ------- [9:255 -1:255 29 0] [0x2 2 1 [18 0] [4 4]] (REQUEST)
r 1.029110178 _16_ RTR  --- 0 AODV 48 [0 ffffffff 9 800] ------- [9:255 -1:255 29 0] [0x2 2 1 [18 0] [4 4]] (REQUEST)
r 1.029110178 _0_ RTR  --- 0 AODV 48 [0 ffffffff 9 800] ------- [9:255 -1:255 29 0] [0x2 2 1 [18 0] [4 4]] (REQUEST)
r 1.029110178 _2_ RTR  --- 0 AODV 48 [0 ffffffff 9 800] ------- [9:255 -1:255 29 0] [0x2 2 1 [18 0] [4 4]] (REQUEST)
r 1.029110178 _18_ RTR  --- 0 AODV 48 [0 ffffffff 9 800] ------- [9:255 -1:255 29 0] [0x2 2 1 [18 0] [4 4]] (REQUEST)
r 1.029110178 _7_ RTR  --- 0 AODV 48 [0 ffffffff 9 800] ------- [9:255 -1:255 29 0] [0x2 2 1 [18 0] [4 4]] (REQUEST)
r 1.029110178 _15_ RTR  --- 0 AODV 48 [0 ffffffff 9 800] ------- [9:255 -1:255 29 0] [0x2 2 1 [18 0] [4 4]] (REQUEST)
r 1.029110276 _3_ RTR  --- 0 AODV 48 [0 ffffffff 9 800] ------- [9:255 -1:255 29 0] [0x2 2 1 [18 0] [4 4]] (REQUEST)
r 1.029110276 _19_ RTR  --- 0 AODV 48 [0 ffffffff 9 800] ------- [9:255 -1:255 29 0] [0x2 2 1 [18 0] [4 4]] (REQUEST)
r 1.031412668 _3_ RTR  --- 0 AODV 48 [0 ffffffff 7 800] ------- [7:255 -1:255 29 0] [0x2 2 1 [18 0] [4 4]] (REQUEST)
r 1.031412668 _6_ RTR  --- 0 AODV 48 [0 ffffffff 7 800] ------- [7:255 -1:255 29 0] [0x2 2 1 [18 0] [4 4]] (REQUEST)
r 1.031412668 _11_ RTR  --- 0 AODV 48 [0 ffffffff 7 800] ------- [7:255 -1:255 29 0] [0x2 2 1 [18 0] [4 4]] (REQUEST)
r 1.031412737 _10_ RTR  --- 0 AODV 48 [0 ffffffff 7 800] ------- [7:255 -1:255 29 0] [0x2 2 1 [18 0] [4 4]] (REQUEST)
r 1.031412737 _2_ RTR  --- 0 AODV 48 [0 ffffffff 7 800] ------- [7:255 -1:255 29 0] [0x2 2 1 [18 0] [4 4]] (REQUEST)
r 1.031412835 _5_ RTR  --- 0 AODV 48 [0 ffffffff 7 800] ------- [7:255 -1:255 29 0] [0x2 2 1 [18 0] [4 4]] (REQUEST)
r 1.031412835 _15_ RTR  --- 0 AODV 48 [0 ffffffff 7 800] ------- [7:255 -1:255 29 0] [0x2 2 1 [18 0] [4 4]] (REQUEST)
r 1.031412874 _14_ RTR  --- 0 AODV 48 [0 ffffffff 7 800] ------- [7:255 -1:255 29 0] [0x2 2 1 [18 0] [4 4]] (REQUEST)
r 1.031412874 _9_ RTR  --- 0 AODV 48 [0 ffffffff 7 800] ------- [7:255 -1:255 29 0] [0x2 2 1 [18 0] [4 4]] (REQUEST)
r 1.031412874 _1_ RTR  --- 0 AODV 48 [0 ffffffff 7 800] ------- [7:255 -1:255 29 0] [0x2 2 1 [18 0] [4 4]] (REQUEST)
r 1.031412973 _13_ RTR  --- 0 AODV 48 [0 ffffffff 7 800] ------- [7:255 -1:255 29 0] [0x2 2 1 [18 0] [4 4]] (REQUEST)
r 1.031413002 _4_ RTR  --- 0 AODV 48 [0 ffffffff 7 800] ------- [7:255 -1:255 29 0] [0x2 2 1 [18 0] [4 4]] (REQUEST)
r 1.031413002 _19_ RTR  --- 0 AODV 48 [0 ffffffff 7 800] ------- [7:255 -1:255 29 0] [0x2 2 1 [18 0] [4 4]] (REQUEST)
r 1.031413029 _18_ RTR  --- 0 AODV 48 [0 ffffffff 7 800] ------- [7:255 -1:255 29 0] [0x2 2 1 [18 0] [4 4]] (REQUEST)
r 1.031413029 _8_ RTR  --- 0 AODV 48 [0 ffffffff 7 800] ------- [7:255 -1:255 29 0] [0x2 2 1 [18 0] [4 4]] (REQUEST)
r 1.031413029 _0_ RTR  --- 0 AODV 48 [0 ffffffff 7 800] ------- [7:255 -1:255 29 0] [0x2 2 1 [18 0] [4 4]] (REQUEST)
r 1.031413102 _17_ RTR  --- 0 AODV 48 [0 ffffffff 7 800] ------- [7:255 -1:255 29 0] [0x2 2 1 [18 0] [4 4]] (REQUEST)
r 1.031413102 _12_ RTR  --- 0 AODV 48 [0 ffffffff 7 800] ------- [7:255 -1:255 29 0] [0x2 2 1 [18 0] [4 4]] (REQUEST)
r 1.031413209 _16_ RTR  --- 0 AODV 48 [0 ffffffff 7 800] ------- [7:255 -1:255 29 0] [0x2 2 1 [18 0] [4 4]] (REQUEST)
s 1.031689355 _0_ RTR  --- 0 AODV 48 [0 ffffffff 4 800] ------- [0:255 -1:255 29 0] [0x2 2 13 [13 0] [4 28]] (REQUEST)
r 1.034780140 _0_ RTR  --- 0 AODV 48 [0 ffffffff 1 800] ------- [1:255 -1:255 29 0] [0x2 2 13 [13 0] [4 28]] (REQUEST)
r 1.034780140 _5_ RTR  --- 0 AODV 48 [0 ffffffff 1 800] ------- [1:255 -1:255 29 0] [0x2 2 13 [13 0] [4 28]] (REQUEST)
r 1.034780140 _2_ RTR  --- 0 AODV 48 [0 ffffffff 1 800] ------- [1:255 -1:255 29 0] [0x2 2 13 [13 0] [4 28]] (REQUEST)
r 1.034780209 _4_ RTR  --- 0 AODV 48 [0 ffffffff 1 800] ------- [1:255 -1:255 29 0] [0x2 2 13 [13 0] [4 28]] (REQUEST)
r 1.034780209 _6_ RTR  --- 0 AODV 48 [0 ffffffff 1 800] ------- [1:255 -1:255 29 0] [0x2 2 13 [13 0] [4 28]] (REQUEST)
r 1.034780306 _9_ RTR  --- 0 AODV 48 [0 ffffffff 1 800] ------- [1:255 -1:255 29 0] [0x2 2 13 [13 0] [4 28]] (REQUEST)
r 1.034780306 _3_ RTR  --- 0 AODV 48 [0 ffffffff 1 800] ------- [1:255 -1:255 29 0] [0x2 2 13 [13 0] [4 28]] (REQUEST)
r 1.034780346 _8_ RTR  --- 0 AODV 48 [0 ffffffff 1 800] ------- [1:255 -1:255 29 0] [0x2 2 13 [13 0] [4 28]] (REQUEST)
r 1.034780346 _10_ RTR  --- 0 AODV 48 [0 ffffffff 1 800] ------- [1:255 -1:255 29 0] [0x2 2 13 [13 0] [4 28]] (REQUEST)
r 1.034780346 _7_ RTR  --- 0 AODV 48 [0 ffffffff 1 800] ------- [1:255 -1:255 29 0] [0x2 2 13 [13 0] [4 28]] (REQUEST)
r 1.034780445 _11_ RTR  --- 0 AODV 48 [0 ffffffff 1 800] ------- [1:255 -1:255 29 0] [0x2 2 13 [13 0] [4 28]] (REQUEST)
r 1.034780473 _13_ RTR  --- 0 AODV 48 [0 ffffffff 1 800] ------- [1:255 -1:255 29 0] [0x2 2 13 [13 0] [4 28]] (REQUEST)
s 1.034780473 _13_ RTR  --- 0 AODV 44 [0 0 0 0] ------- [13:255 4:255 30 1] [0x4 1 [13 4] 10.000000] (REPLY)
r 1.034780500 _12_ RTR  --- 0 AODV 48 [0 ffffffff 1 800] ------- [1:255 -1:255 29 0] [0x2 2 13 [13 0] [4 28]] (REQUEST)
r 1.034780500 _14_ RTR  --- 0 AODV 48 [0 ffffffff 1 800] ------- [1:255 -1:255 29 0] [0x2 2 13 [13 0] [4 28]] (REQUEST)
r 1.034780574 _15_ RTR  --- 0 AODV 48 [0 ffffffff 1 800] ------- [1:255 -1:255 29 0] [0x2 2 13 [13 0] [4 28]] (REQUEST)
r 1.034780640 _17_ RTR  --- 0 AODV 48 [0 ffffffff 1 800] ------- [1:255 -1:255 29 0] [0x2 2 13 [13 0] [4 28]] (REQUEST)
r 1.034780660 _16_ RTR  --- 0 AODV 48 [0 ffffffff 1 800] ------- [1:255 -1:255 29 0] [0x2 2 13 [13 0] [4 28]] (REQUEST)
r 1.034780660 _18_ RTR  --- 0 AODV 48 [0 ffffffff 1 800] ------- [1:255 -1:255 29 0] [0x2 2 13 [13 0] [4 28]] (REQUEST)
r 1.034780718 _19_ RTR  --- 0 AODV 48 [0 ffffffff 1 800] ------- [1:255 -1:255 29 0] [0x2 2 13 [13 0] [4 28]] (REQUEST)
s 1.035196390 _16_ RTR  --- 0 AODV 48 [0 ffffffff 1 800] ------- [16:255 -1:255 28 0] [0x2 3 13 [13 0] [4 28]] (REQUEST)
s 1.035554633 _18_ RTR  --- 0 AODV 48 [0 ffffffff 1 800] ------- [18:255 -1:255 28 0] [0x2 3 13 [13 0] [4 28]] (REQUEST)
s 1.035974877 _19_ RTR  --- 0 AODV 48 [0 ffffffff 1 800] ------- [19:255 -1:255 28 0] [0x2 3 13 [13 0] [4 28]] (REQUEST)
s 1.036398866 _3_ RTR  --- 0 AODV 48 [0 ffffffff 1 800] ------- [3:255 -1:255 28 0] [0x2 3 13 [13 0] [4 28]] (REQUEST)
s 1.036445069 _15_ RTR  --- 0 AODV 48 [0 ffffffff 1 800] ------- [15:255 -1:255 28 0] [0x2 3 13 [13 0] [4 28]] (REQUEST)
s 1.036709682 _17_ RTR  --- 0 AODV 48 [0 ffffffff 1 800] ------- [17:255 -1:255 28 0] [0x2 3 13 [13 0] [4 28]] (REQUEST)
s 1.036838965 _2_ RTR  --- 0 AODV 48 [0 ffffffff 1 800] ------- [2:255 -1:255 28 0] [0x2 3 13 [13 0] [4 28]] (REQUEST)
r 1.037019522 _4_ RTR  --- 0 AODV 48 [0 ffffffff 0 800] ------- [0:255 -1:255 29 0] [0x2 2 13 [13 0] [4 28]] (REQUEST)
r 1.037019522 _1_ RTR  --- 0 AODV 48 [0 ffffffff 0 800] ------- [0:255 -1:255 29 0] [0x2 2 13 [13 0] [4 28]] (REQUEST)
r 1.037019591 _5_ RTR  --- 0 AODV 48 [0 ffffffff 0 800] ------- [0:255 -1:255 29 0] [0x2 2 13 [13 0] [4 28]] (REQUEST)
r 1.037019689 _8_ RTR  --- 0 AODV 48 [0 ffffffff 0 800] ------- [0:255 -1:255 29 0] [0x2 2 13 [13 0] [4 28]] (REQUEST)
r 1.037019689 _2_ RTR  --- 0 AODV 48 [0 ffffffff 0 800] ------- [0:255 -1:255 29 0] [0x2 2 13 [13 0] [4 28]] (REQUEST)
r 1.037019728 _9_ RTR  --- 0 AODV 48 [0 ffffffff 0 800] ------- [0:255 -1:255 29 0] [0x2 2 13 [13 0] [4 28]] (REQUEST)
r 1.037019728 _6_ RTR  --- 0 AODV 48 [0 ffffffff 0 800] ------- [0:255 -1:255 29 0] [0x2 2 13 [13 0] [4 28]] (REQUEST)
r 1.037019827 _10_ RTR  --- 0 AODV 48 [0 ffffffff 0 800] ------- [0:255 -1:255 29 0] [0x2 2 13 [13 0] [4 28]] (REQUEST)
r 1.037019855 _12_ RTR  --- 0 AODV 48 [0 ffffffff 0 800] ------- [0:255 -1:255 29 0] [0x2 2 13 [13 0] [4 28]] (REQUEST)
r 1.037019855 _3_ RTR  --- 0 AODV 48 [0 ffffffff 0 800] ------- [0:255 -1:255 29 0] [0x2 2 13 [13 0] [4 28]] (REQUEST)
r 1.037019882 _13_ RTR  --- 0 AODV 48 [0 ffffffff 0 800] ------- [0:255 -1:255 29 0] [0x2 2 13 [13 0] [4 28]] (REQUEST)
r 1.037019882 _7_ RTR  --- 0 AODV 48 [0 ffffffff 0 800] ------- [0:255 -1:255 29 0] [0x2 2 13 [13 0] [4 28]] (REQUEST)
r 1.037019956 _14_ RTR  --- 0 AODV 48 [0 ffffffff 0 800] ------- [0:255 -1:255 29 0] [0x2 2 13 [13 0] [4 28]] (REQUEST)
r 1.037019956 _11_ RTR  --- 0 AODV 48 [0 ffffffff 0 800] ------- [0:255 -1:255 29 0] [0x2 2 13 [13 0] [4 28]] (REQUEST)
r 1.037020022 _16_ RTR  --- 0 AODV 48 [0 ffffffff 0 800] ------- [0:255 -1:255 29 0] [0x2 2 13 [13 0] [4 28]] (REQUEST)
r 1.037020042 _17_ RTR  --- 0 AODV 48 [0 ffffffff 0 800] ------- [0:255 -1:255 29 0] [0x2 2 13 [13 0] [4 28]] (REQUEST)
r 1.037020062 _15_ RTR  --- 0 AODV 48 [0 ffffffff 0 800] ------- [0:255 -1:255 29 0] [0x2 2 13 [13 0] [4 28]] (REQUEST)
r 1.037020101 _18_ RTR  --- 0 AODV 48 [0 ffffffff 0 800] ------- [0:255 -1:255 29 0] [0x2 2 13 [13 0] [4 28]] (REQUEST)
r 1.037020189 _19_ RTR  --- 0 AODV 48 [0 ffffffff 0 800] ------- [0:255 -1:255 29 0] [0x2 2 13 [13 0] [4 28]] (REQUEST)
s 1.037427830 _8_ RTR  --- 0 AODV 48 [0 ffffffff 1 800] ------- [8:255 -1:255 28 0] [0x2 3 13 [13 0] [4 28]] (REQUEST)
s 1.037584785 _14_ RTR  --- 0 AODV 48 [0 ffffffff 1 800] ------- [14:255 -1:255 28 0] [0x2 3 13 [13 0] [4 28]] (REQUEST)
s 1.038566719 _10_ RTR  --- 0 AODV 48 [0 ffffffff 1 800] ------- [10:255 -1:255 28 0] [0x2 3 13 [13 0] [4 28]] (REQUEST)
s 1.040897628 _7_ RTR  --- 0 AODV 48 [0 ffffffff 1 800] ------- [7:255 -1:255 28 0] [0x2 3 13 [13 0] [4 28]] (REQUEST)
s 1.041334861 _11_ RTR  --- 0 AODV 48 [0 ffffffff 1 800] ------- [11:255 -1:255 28 0] [0x2 3 13 [13 0] [4 28]] (REQUEST)
s 1.041352871 _9_ RTR  --- 0 AODV 48 [0 ffffffff 1 800] ------- [9:255 -1:255 28 0] [0x2 3 13 [13 0] [4 28]] (REQUEST)
r 1.041401210 _14_ RTR  --- 0 AODV 48 [0 ffffffff 12 800] ------- [18:255 -1:255 28 0] [0x2 3 13 [13 0] [4 28]] (REQUEST)
r 1.041401210 _17_ RTR  --- 0 AODV 48 [0 ffffffff 12 800] ------- [18:255 -1:255 28 0] [0x2 3 13 [13 0] [4 28]] (REQUEST)
r 1.041401210 _19_ RTR  --- 0 AODV 48 [0 ffffffff 12 800] ------- [18:255 -1:255 28 0] [0x2 3 13 [13 0] [4 28]] (REQUEST)
r 1.041401279 _13_ RTR  --- 0 AODV 48 [0 ffffffff 12 800] ------- [18:255 -1:255 28 0] [0x2 3 13 [13 0] [4 28]] (REQUEST)
r 1.041401377 _10_ RTR  --- 0 AODV 48 [0 ffffffff 12 800] ------- [18:255 -1:255 28 0] [0x2 3 13 [13 0] [4 28]] (REQUEST)
r 1.041401377 _16_ RTR  --- 0 AODV 48 [0 ffffffff 12 800] ------- [18:255 -1:255 28 0] [0x2 3 13 [13 0] [4 28]] (REQUEST)
r 1.041401416 _9_ RTR  --- 0 AODV 48 [0 ffffffff 12 800] ------- [18:255 -1:255 28 0] [0x2 3 13 [13 0] [4 28]] (REQUEST)
r 1.041401416 _12_ RTR  --- 0 AODV 48 [0 ffffffff 12 800] ------- [18:255 -1:255 28 0] [0x2 3 13 [13 0] [4 28]] (REQUEST)
r 1.041401416 _11_ RTR  --- 0 AODV 48 [0 ffffffff 12 800] ------- [18:255 -1:255 28 0] [0x2 3 13 [13 0] [4 28]] (REQUEST)
r 1.041401515 _8_ RTR  --- 0 AODV 48 [0 ffffffff 12 800] ------- [18:255 -1:255 28 0] [0x2 3 13 [13 0] [4 28]] (REQUEST)
r 1.041401543 _6_ RTR  --- 0 AODV 48 [0 ffffffff 12 800] ------- [18:255 -1:255 28 0] [0x2 3 13 [13 0] [4 28]] (REQUEST)
r 1.041401570 _5_ RTR  --- 0 AODV 48 [0 ffffffff 12 800] ------- [18:255 -1:255 28 0] [0x2 3 13 [13 0] [4 28]] (REQUEST)
r 1.041401570 _7_ RTR  --- 0 AODV 48 [0 ffffffff 12 800] ------- [18:255 -1:255 28 0] [0x2 3 13 [13 0] [4 28]] (REQUEST)
r 1.041401644 _4_ RTR  --- 0 AODV 48 [0 ffffffff 12 800] ------- [18:255 -1:255 28 0] [0x2 3 13 [13 0] [4 28]] (REQUEST)
r 1.041401710 _2_ RTR  --- 0 AODV 48 [0 ffffffff 12 800] ------- [18:255 -1:255 28 0] [0x2 3 13 [13 0] [4 28]] (REQUEST)
r 1.041401730 _1_ RTR  --- 0 AODV 48 [0 ffffffff 12 800] ------- [18:255 -1:255 28 0] [0x2 3 13 [13 0] [4 28]] (REQUEST)
r 1.041401730 _3_ RTR  --- 0 AODV 48 [0 ffffffff 12 800] ------- [18:255 -1:255 28 0] [0x2 3 13 [13 0] [4 28]] (REQUEST)
r 1.041401789 _0_ RTR  --- 0 AODV 48 [0 ffffffff 12 800] ------- [18:255 -1:255 28 0] [0x2 3 13 [13 0] [4 28]] (REQUEST)
s 1.041533984 _6_ RTR  --- 0 AODV 48 [0 ffffffff 1 800] ------- [6:255 -1:255 28 0] [0x2 3 13 [13 0] [4 28]] (REQUEST)