V -t * -v 1.0a5 -a 0
A -t * -n 1 -p 0 -o 0x7fffffff -c 30 -a 1
A -t * -h 1 -m 1073741823 -s 0
c -t * -i 1 -n Blue
c -t * -i 2 -n Red
c -t * -i 3 -n Yellow
n -t * -a 4 -s 4 -S UP -v circle -c black -i black
n -t * -a 0 -s 0 -S UP -v circle -c black -i black
n -t * -a 5 -s 5 -S UP -v circle -c black -i black
n -t * -a 1 -s 1 -S UP -v circle -c black -i black
n -t * -a 6 -s 6 -S UP -v circle -c black -i black
n -t * -a 2 -s 2 -S UP -v circle -c black -i black
n -t * -a 7 -s 7 -S UP -v circle -c black -i black
n -t * -a 3 -s 3 -S UP -v circle -c black -i black
l -t * -s 0 -d 3 -S UP -r 15000000 -D 0.01 -c black -o right-down
l -t * -s 1 -d 3 -S UP -r 15000000 -D 0.01 -c black -o right
l -t * -s 2 -d 3 -S UP -r 15000000 -D 0.01 -c black -o right-up
l -t * -s 3 -d 4 -S UP -r 1000000 -D 0.029999999999999999 -c black -o right
l -t * -s 5 -d 4 -S UP -r 15000000 -D 0.029999999999999999 -c black -o left-down
l -t * -s 6 -d 4 -S UP -r 15000000 -D 0.029999999999999999 -c black -o left
l -t * -s 7 -d 4 -S UP -r 15000000 -D 0.029999999999999999 -c black -o left-up
q -t * -s 3 -d 4 -a 0
q -t * -s 4 -d 3 -a 0
+ -t 0.1 -s 0 -d 3 -p tcp -e 40 -c 1 -i 0 -a 1 -x {0.0 5.0 0 ------- null}
- -t 0.1 -s 0 -d 3 -p tcp -e 40 -c 1 -i 0 -a 1 -x {0.0 5.0 0 ------- null}
h -t 0.1 -s 0 -d 3 -p tcp -e 40 -c 1 -i 0 -a 1 -x {0.0 5.0 -1 ------- null}
r -t 0.110021333333333 -s 0 -d 3 -p tcp -e 40 -c 1 -i 0 -a 1 -x {0.0 5.0 0 ------- null}
+ -t 0.110021333333333 -s 3 -d 4 -p tcp -e 40 -c 1 -i 0 -a 1 -x {0.0 5.0 0 ------- null}
- -t 0.110021333333333 -s 3 -d 4 -p tcp -e 40 -c 1 -i 0 -a 1 -x {0.0 5.0 0 ------- null}
h -t 0.110021333333333 -s 3 -d 4 -p tcp -e 40 -c 1 -i 0 -a 1 -x {0.0 5.0 -1 ------- null}
r -t 0.140341333333333 -s 3 -d 4 -p tcp -e 40 -c 1 -i 0 -a 1 -x {0.0 5.0 0 ------- null}
+ -t 0.140341333333333 -s 4 -d 5 -p tcp -e 40 -c 1 -i 0 -a 1 -x {0.0 5.0 0 ------- null}
- -t 0.140341333333333 -s 4 -d 5 -p tcp -e 40 -c 1 -i 0 -a 1 -x {0.0 5.0 0 ------- null}
h -t 0.140341333333333 -s 4 -d 5 -p tcp -e 40 -c 1 -i 0 -a 1 -x {0.0 5.0 -1 ------- null}
r -t 0.170362666666667 -s 4 -d 5 -p tcp -e 40 -c 1 -i 0 -a 1 -x {0.0 5.0 0 ------- null}
+ -t 0.170362666666667 -s 5 -d 4 -p ack -e 40 -c 1 -i 1 -a 1 -x {5.0 0.0 0 ------- null}
- -t 0.170362666666667 -s 5 -d 4 -p ack -e 40 -c 1 -i 1 -a 1 -x {5.0 0.0 0 ------- null}
h -t 0.170362666666667 -s 5 -d 4 -p ack -e 40 -c 1 -i 1 -a 1 -x {5.0 0.0 -1 ------- null}
r -t 0.200384 -s 5 -d 4 -p ack -e 40 -c 1 -i 1 -a 1 -x {5.0 0.0 0 ------- null}
+ -t 0.200384 -s 4 -d 3 -p ack -e 40 -c 1 -i 1 -a 1 -x {5.0 0.0 0 ------- null}
- -t 0.200384 -s 4 -d 3 -p ack -e 40 -c 1 -i 1 -a 1 -x {5.0 0.0 0 ------- null}
h -t 0.200384 -s 4 -d 3 -p ack -e 40 -c 1 -i 1 -a 1 -x {5.0 0.0 -1 ------- null}
r -t 0.230704 -s 4 -d 3 -p ack -e 40 -c 1 -i 1 -a 1 -x {5.0 0.0 0 ------- null}
+ -t 0.230704 -s 3 -d 0 -p ack -e 40 -c 1 -i 1 -a 1 -x {5.0 0.0 0 ------- null}
- -t 0.230704 -s 3 -d 0 -p ack -e 40 -c 1 -i 1 -a 1 -x {5.0 0.0 0 ------- null}
h -t 0.230704 -s 3 -d 0 -p ack -e 40 -c 1 -i 1 -a 1 -x {5.0 0.0 -1 ------- null}
r -t 0.240725333333333 -s 3 -d 0 -p ack -e 40 -c 1 -i 1 -a 1 -x {5.0 0.0 0 ------- null}
+ -t 0.240725333333333 -s 0 -d 3 -p tcp -e 1040 -c 1 -i 2 -a 1 -x {0.0 5.0 1 ------- null}
- -t 0.240725333333333 -s 0 -d 3 -p tcp -e 1040 -c 1 -i 2 -a 1 -x {0.0 5.0 1 ------- null}
h -t 0.240725333333333 -s 0 -d 3 -p tcp -e 1040 -c 1 -i 2 -a 1 -x {0.0 5.0 -1 ------- null}
+ -t 0.240725333333333 -s 0 -d 3 -p tcp -e 1040 -c 1 -i 3 -a 1 -x {0.0 5.0 2 ------- null}
- -t 0.24128 -s 0 -d 3 -p tcp -e 1040 -c 1 -i 3 -a 1 -x {0.0 5.0 2 ------- null}
h -t 0.24128 -s 0 -d 3 -p tcp -e 1040 -c 1 -i 3 -a 1 -x {0.0 5.0 -1 ------- null}
r -t 0.25128 -s 0 -d 3 -p tcp -e 1040 -c 1 -i 2 -a 1 -x {0.0 5.0 1 ------- null}
+ -t 0.25128 -s 3 -d 4 -p tcp -e 1040 -c 1 -i 2 -a 1 -x {0.0 5.0 1 ------- null}
- -t 0.25128 -s 3 -d 4 -p tcp -e 1040 -c 1 -i 2 -a 1 -x {0.0 5.0 1 ------- null}
h -t 0.25128 -s 3 -d 4 -p tcp -e 1040 -c 1 -i 2 -a 1 -x {0.0 5.0 -1 ------- null}
r -t 0.251834666666667 -s 0 -d 3 -p tcp -e 1040 -c 1 -i 3 -a 1 -x {0.0 5.0 2 ------- null}
+ -t 0.251834666666667 -s 3 -d 4 -p tcp -e 1040 -c 1 -i 3 -a 1 -x {0.0 5.0 2 ------- null}
- -t 0.2596 -s 3 -d 4 -p tcp -e 1040 -c 1 -i 3 -a 1 -x {0.0 5.0 2 ------- null}
h -t 0.2596 -s 3 -d 4 -p tcp -e 1040 -c 1 -i 3 -a 1 -x {0.0 5.0 -1 ------- null}
r -t 0.2896 -s 3 -d 4 -p tcp -e 1040 -c 1 -i 2 -a 1 -x {0.0 5.0 1 ------- null}
+ -t 0.2896 -s 4 -d 5 -p tcp -e 1040 -c 1 -i 2 -a 1 -x {0.0 5.0 1 ------- null}
- -t 0.2896 -s 4 -d 5 -p tcp -e 1040 -c 1 -i 2 -a 1 -x {0.0 5.0 1 ------- null}
h -t 0.2896 -s 4 -d 5 -p tcp -e 1040 -c 1 -i 2 -a 1 -x {0.0 5.0 -1 ------- null}
r -t 0.29792 -s 3 -d 4 -p tcp -e 1040 -c 1 -i 3 -a 1 -x {0.0 5.0 2 ------- null}
+ -t 0.29792 -s 4 -d 5 -p tcp -e 1040 -c 1 -i 3 -a 1 -x {0.0 5.0 2 ------- null}
- -t 0.29792 -s 4 -d 5 -p tcp -e 1040 -c 1 -i 3 -a 1 -x {0.0 5.0 2 ------- null}
h -t 0.29792 -s 4 -d 5 -p tcp -e 1040 -c 1 -i 3 -a 1 -x {0.0 5.0 -1 ------- null}
r -t 0.320154666666667 -s 4 -d 5 -p tcp -e 1040 -c 1 -i 2 -a 1 -x {0.0 5.0 1 ------- null}
+ -t 0.320154666666667 -s 5 -d 4 -p ack -e 40 -c 1 -i 4 -a 1 -x {5.0 0.0 1 ------- null}
- -t 0.320154666666667 -s 5 -d 4 -p ack -e 40 -c 1 -i 4 -a 1 -x {5.0 0.0 1 ------- null}
h -t 0.320154666666667 -s 5 -d 4 -p ack -e 40 -c 1 -i 4 -a 1 -x {5.0 0.0 -1 ------- null}
r -t 0.328474666666667 -s 4 -d 5 -p tcp -e 1040 -c 1 -i 3 -a 1 -x {0.0 5.0 2 ------- null}
+ -t 0.328474666666667 -s 5 -d 4 -p ack -e 40 -c 1 -i 5 -a 1 -x {5.0 0.0 2 ------- null}
- -t 0.328474666666667 -s 5 -d 4 -p ack -e 40 -c 1 -i 5 -a 1 -x {5.0 0.0 2 ------- null}
h -t 0.328474666666667 -s 5 -d 4 -p ack -e 40 -c 1 -i 5 -a 1 -x {5.0 0.0 -1 ------- null}
r -t 0.350176 -s 5 -d 4 -p ack -e 40 -c 1 -i 4 -a 1 -x {5.0 0.0 1 ------- null}
+ -t 0.350176 -s 4 -d 3 -p ack -e 40 -c 1 -i 4 -a 1 -x {5.0 0.0 1 ------- null}
- -t 0.350176 -s 4 -d 3 -p ack -e 40 -c 1 -i 4 -a 1 -x {5.0 0.0 1 ------- null}
h -t 0.350176 -s 4 -d 3 -p ack -e 40 -c 1 -i 4 -a 1 -x {5.0 0.0 -1 ------- null}
r -t 0.358496 -s 5 -d 4 -p ack -e 40 -c 1 -i 5 -a 1 -x {5.0 0.0 2 ------- null}
+ -t 0.358496 -s 4 -d 3 -p ack -e 40 -c 1 -i 5 -a 1 -x {5.0 0.0 2 ------- null}
- -t 0.358496 -s 4 -d 3 -p ack -e 40 -c 1 -i 5 -a 1 -x {5.0 0.0 2 ------- null}
h -t 0.358496 -s 4 -d 3 -p ack -e 40 -c 1 -i 5 -a 1 -x {5.0 0.0 -1 ------- null}
r -t 0.380496 -s 4 -d 3 -p ack -e 40 -c 1 -i 4 -a 1 -x {5.0 0.0 1 ------- null}
+ -t 0.380496 -s 3 -d 0 -p ack -e 40 -c 1 -i 4 -a 1 -x {5.0 0.0 1 ------- null}
- -t 0.380496 -s 3 -d 0 -p ack -e 40 -c 1 -i 4 -a 1 -x {5.0 0.0 1 ------- null}
h -t 0.380496 -s 3 -d 0 -p ack -e 40 -c 1 -i 4 -a 1 -x {5.0 0.0 -1 ------- null}
r -t 0.388816 -s 4 -d 3 -p ack -e 40 -c 1 -i 5 -a 1 -x {5.0 0.0 2 ------- null}
+ -t 0.388816 -s 3 -d 0 -p ack -e 40 -c 1 -i 5 -a 1 -x {5.0 0.0 2 ------- null}
- -t 0.388816 -s 3 -d 0 -p ack -e 40 -c 1 -i 5 -a 1 -x {5.0 0.0 2 ------- null}
h -t 0.388816 -s 3 -d 0 -p ack -e 40 -c 1 -i 5 -a 1 -x {5.0 0.0 -1 ------- null}
r -t 0.390517333333333 -s 3 -d 0 -p ack -e 40 -c 1 -i 4 -a 1 -x {5.0 0.0 1 ------- null}
+ -t 0.390517333333333 -s 0 -d 3 -p tcp -e 1040 -c 1 -i 6 -a 1 -x {0.0 5.0 3 ------- null}
- -t 0.390517333333333 -s 0 -d 3 -p tcp -e 1040 -c 1 -i 6 -a 1 -x {0.0 5.0 3 ------- null}
h -t 0.390517333333333 -s 0 -d 3 -p tcp -e 1040 -c 1 -i 6 -a 1 -x {0.0 5.0 -1 ------- null}
+ -t 0.390517333333333 -s 0 -d 3 -p tcp -e 1040 -c 1 -i 7 -a 1 -x {0.0 5.0 4 ------- null}
- -t 0.391072 -s 0 -d 3 -p tcp -e 1040 -c 1 -i 7 -a 1 -x {0.0 5.0 4 ------- null}
h -t 0.391072 -s 0 -d 3 -p tcp -e 1040 -c 1 -i 7 -a 1 -x {0.0 5.0 -1 ------- null}
r -t 0.398837333333333 -s 3 -d 0 -p ack -e 40 -c 1 -i 5 -a 1 -x {5.0 0.0 2 ------- null}
+ -t 0.398837333333333 -s 0 -d 3 -p tcp -e 1040 -c 1 -i 8 -a 1 -x {0.0 5.0 5 ------- null}
- -t 0.398837333333333 -s 0 -d 3 -p tcp -e 1040 -c 1 -i 8 -a 1 -x {0.0 5.0 5 ------- null}
h -t 0.398837333333333 -s 0 -d 3 -p tcp -e 1040 -c 1 -i 8 -a 1 -x {0.0 5.0 -1 ------- null}
+ -t 0.398837333333333 -s 0 -d 3 -p tcp -e 1040 -c 1 -i 9 -a 1 -x {0.0 5.0 6 ------- null}
- -t 0.399392 -s 0 -d 3 -p tcp -e 1040 -c 1 -i 9 -a 1 -x {0.0 5.0 6 ------- null}
h -t 0.399392 -s 0 -d 3 -p tcp -e 1040 -c 1 -i 9 -a 1 -x {0.0 5.0 -1 ------- null}
r -t 0.401072 -s 0 -d 3 -p tcp -e 1040 -c 1 -i 6 -a 1 -x {0.0 5.0 3 ------- null}
+ -t 0.401072 -s 3 -d 4 -p tcp -e 1040 -c 1 -i 6 -a 1 -x {0.0 5.0 3 ------- null}
- -t 0.401072 -s 3 -d 4 -p tcp -e 1040 -c 1 -i 6 -a 1 -x {0.0 5.0 3 ------- null}
h -t 0.401072 -s 3 -d 4 -p tcp -e 1040 -c 1 -i 6 -a 1 -x {0.0 5.0 -1 ------- null}
r -t 0.401626666666667 -s 0 -d 3 -p tcp -e 1040 -c 1 -i 7 -a 1 -x {0.0 5.0 4 ------- null}
+ -t 0.401626666666667 -s 3 -d 4 -p tcp -e 1040 -c 1 -i 7 -a 1 -x {0.0 5.0 4 ------- null}
r -t 0.409392 -s 0 -d 3 -p tcp -e 1040 -c 1 -i 8 -a 1 -x {0.0 5.0 5 ------- null}
+ -t 0.409392 -s 3 -d 4 -p tcp -e 1040 -c 1 -i 8 -a 1 -x {0.0 5.0 5 ------- null}
- -t 0.409392 -s 3 -d 4 -p tcp -e 1040 -c 1 -i 7 -a 1 -x {0.0 5.0 4 ------- null}
h -t 0.409392 -s 3 -d 4 -p tcp -e 1040 -c 1 -i 7 -a 1 -x {0.0 5.0 -1 ------- null}
r -t 0.409946666666667 -s 0 -d 3 -p tcp -e 1040 -c 1 -i 9 -a 1 -x {0.0 5.0 6 ------- null}
+ -t 0.409946666666667 -s 3 -d 4 -p tcp -e 1040 -c 1 -i 9 -a 1 -x {0.0 5.0 6 ------- null}
- -t 0.417712 -s 3 -d 4 -p tcp -e 1040 -c 1 -i 8 -a 1 -x {0.0 5.0 5 ------- null}
h -t 0.417712 -s 3 -d 4 -p tcp -e 1040 -c 1 -i 8 -a 1 -x {0.0 5.0 -1 ------- null}
- -t 0.426032 -s 3 -d 4 -p tcp -e 1040 -c 1 -i 9 -a 1 -x {0.0 5.0 6 ------- null}
h -t 0.426032 -s 3 -d 4 -p tcp -e 1040 -c 1 -i 9 -a 1 -x {0.0 5.0 -1 ------- null}
r -t 0.439392 -s 3 -d 4 -p tcp -e 1040 -c 1 -i 6 -a 1 -x {0.0 5.0 3 ------- null}
+ -t 0.439392 -s 4 -d 5 -p tcp -e 1040 -c 1 -i 6 -a 1 -x {0.0 5.0 3 ------- null}
- -t 0.439392 -s 4 -d 5 -p tcp -e 1040 -c 1 -i 6 -a 1 -x {0.0 5.0 3 ------- null}
h -t 0.439392 -s 4 -d 5 -p tcp -e 1040 -c 1 -i 6 -a 1 -x {0.0 5.0 -1 ------- null}
r -t 0.447712 -s 3 -d 4 -p tcp -e 1040 -c 1 -i 7 -a 1 -x {0.0 5.0 4 ------- null}
+ -t 0.447712 -s 4 -d 5 -p tcp -e 1040 -c 1 -i 7 -a 1 -x {0.0 5.0 4 ------- null}
- -t 0.447712 -s 4 -d 5 -p tcp -e 1040 -c 1 -i 7 -a 1 -x {0.0 5.0 4 ------- null}
h -t 0.447712 -s 4 -d 5 -p tcp -e 1040 -c 1 -i 7 -a 1 -x {0.0 5.0 -1 ------- null}
r -t 0.456032 -s 3 -d 4 -p tcp -e 1040 -c 1 -i 8 -a 1 -x {0.0 5.0 5 ------- null}
+ -t 0.456032 -s 4 -d 5 -p tcp -e 1040 -c 1 -i 8 -a 1 -x {0.0 5.0 5 ------- null}
- -t 0.456032 -s 4 -d 5 -p tcp -e 1040 -c 1 -i 8 -a 1 -x {0.0 5.0 5 ------- null}
h -t 0.456032 -s 4 -d 5 -p tcp -e 1040 -c 1 -i 8 -a 1 -x {0.0 5.0 -1 ------- null}
r -t 0.464352 -s 3 -d 4 -p tcp -e 1040 -c 1 -i 9 -a 1 -x {0.0 5.0 6 ------- null}
+ -t 0.464352 -s 4 -d 5 -p tcp -e 1040 -c 1 -i 9 -a 1 -x {0.0 5.0 6 ------- null}
- -t 0.464352 -s 4 -d 5 -p tcp -e 1040 -c 1 -i 9 -a 1 -x {0.0 5.0 6 ------- null}
h -t 0.464352 -s 4 -d 5 -p tcp -e 1040 -c 1 -i 9 -a 1 -x {0.0 5.0 -1 ------- null}
r -t 0.469946666666667 -s 4 -d 5 -p tcp -e 1040 -c 1 -i 6 -a 1 -x {0.0 5.0 3 ------- null}
+ -t 0.469946666666667 -s 5 -d 4 -p ack -e 40 -c 1 -i 10 -a 1 -x {5.0 0.0 3 ------- null}
- -t 0.469946666666667 -s 5 -d 4 -p ack -e 40 -c 1 -i 10 -a 1 -x {5.0 0.0 3 ------- null}
h -t 0.469946666666667 -s 5 -d 4 -p ack -e 40 -c 1 -i 10 -a 1 -x {5.0 0.0 -1 ------- null}
r -t 0.478266666666667 -s 4 -d 5 -p tcp -e 1040 -c 1 -i 7 -a 1 -x {0.0 5.0 4 ------- null}
+ -t 0.478266666666667 -s 5 -d 4 -p ack -e 40 -c 1 -i 11 -a 1 -x {5.0 0.0 4 ------- null}
- -t 0.478266666666667 -s 5 -d 4 -p ack -e 40 -c 1 -i 11 -a 1 -x {5.0 0.0 4 ------- null}
h -t 0.478266666666667 -s 5 -d 4 -p ack -e 40 -c 1 -i 11 -a 1 -x {5.0 0.0 -1 ------- null}
r -t 0.486586666666667 -s 4 -d 5 -p tcp -e 1040 -c 1 -i 8 -a 1 -x {0.0 5.0 5 ------- null}
+ -t 0.486586666666667 -s 5 -d 4 -p ack -e 40 -c 1 -i 12 -a 1 -x {5.0 0.0 5 ------- null}
- -t 0.486586666666667 -s 5 -d 4 -p ack -e 40 -c 1 -i 12 -a 1 -x {5.0 0.0 5 ------- null}
h -t 0.486586666666667 -s 5 -d 4 -p ack -e 40 -c 1 -i 12 -a 1 -x {5.0 0.0 -1 ------- null}
r -t 0.494906666666667 -s 4 -d 5 -p tcp -e 1040 -c 1 -i 9 -a 1 -x {0.0 5.0 6 ------- null}
+ -t 0.494906666666667 -s 5 -d 4 -p ack -e 40 -c 1 -i 13 -a 1 -x {5.0 0.0 6 ------- null}
- -t 0.494906666666667 -s 5 -d 4 -p ack -e 40 -c 1 -i 13 -a 1 -x {5.0 0.0 6 ------- null}
h -t 0.494906666666667 -s 5 -d 4 -p ack -e 40 -c 1 -i 13 -a 1 -x {5.0 0.0 -1 ------- null}
r -t 0.499968 -s 5 -d 4 -p ack -e 40 -c 1 -i 10 -a 1 -x {5.0 0.0 3 ------- null}
+ -t 0.499968 -s 4 -d 3 -p ack -e 40 -c 1 -i 10 -a 1 -x {5.0 0.0 3 ------- null}
- -t 0.499968 -s 4 -d 3 -p ack -e 40 -c 1 -i 10 -a 1 -x {5.0 0.0 3 ------- null}
h -t 0.499968 -s 4 -d 3 -p ack -e 40 -c 1 -i 10 -a 1 -x {5.0 0.0 -1 ------- null}
+ -t 0.5 -s 1 -d 3 -p tcp -e 40 -c 2 -i 14 -a 2 -x {1.0 6.0 0 ------- null}
- -t 0.5 -s 1 -d 3 -p tcp -e 40 -c 2 -i 14 -a 2 -x {1.0 6.0 0 ------- null}
h -t 0.5 -s 1 -d 3 -p tcp -e 40 -c 2 -i 14 -a 2 -x {1.0 6.0 -1 ------- null}
r -t 0.508288 -s 5 -d 4 -p ack -e 40 -c 1 -i 11 -a 1 -x {5.0 0.0 4 ------- null}
+ -t 0.508288 -s 4 -d 3 -p ack -e 40 -c 1 -i 11 -a 1 -x {5.0 0.0 4 ------- null}
- -t 0.508288 -s 4 -d 3 -p ack -e 40 -c 1 -i 11 -a 1 -x {5.0 0.0 4 ------- null}
h -t 0.508288 -s 4 -d 3 -p ack -e 40 -c 1 -i 11 -a 1 -x {5.0 0.0 -1 ------- null}
r -t 0.510021333333333 -s 1 -d 3 -p tcp -e 40 -c 2 -i 14 -a 2 -x {1.0 6.0 0 ------- null}
+ -t 0.510021333333333 -s 3 -d 4 -p tcp -e 40 -c 2 -i 14 -a 2 -x {1.0 6.0 0 ------- null}
- -t 0.510021333333333 -s 3 -d 4 -p tcp -e 40 -c 2 -i 14 -a 2 -x {1.0 6.0 0 ------- null}
h -t 0.510021333333333 -s 3 -d 4 -p tcp -e 40 -c 2 -i 14 -a 2 -x {1.0 6.0 -1 ------- null}
r -t 0.516608 -s 5 -d 4 -p ack -e 40 -c 1 -i 12 -a 1 -x {5.0 0.0 5 ------- null}
+ -t 0.516608 -s 4 -d 3 -p ack -e 40 -c 1 -i 12 -a 1 -x {5.0 0.0 5 ------- null}
- -t 0.516608 -s 4 -d 3 -p ack -e 40 -c 1 -i 12 -a 1 -x {5.0 0.0 5 ------- null}
h -t 0.516608 -s 4 -d 3 -p ack -e 40 -c 1 -i 12 -a 1 -x {5.0 0.0 -1 ------- null}
r -t 0.524928 -s 5 -d 4 -p ack -e 40 -c 1 -i 13 -a 1 -x {5.0 0.0 6 ------- null}
+ -t 0.524928 -s 4 -d 3 -p ack -e 40 -c 1 -i 13 -a 1 -x {5.0 0.0 6 ------- null}
- -t 0.524928 -s 4 -d 3 -p ack -e 40 -c 1 -i 13 -a 1 -x {5.0 0.0 6 ------- null}
h -t 0.524928 -s 4 -d 3 -p ack -e 40 -c 1 -i 13 -a 1 -x {5.0 0.0 -1 ------- null}
r -t 0.530288 -s 4 -d 3 -p ack -e 40 -c 1 -i 10 -a 1 -x {5.0 0.0 3 ------- null}
+ -t 0.530288 -s 3 -d 0 -p ack -e 40 -c 1 -i 10 -a 1 -x {5.0 0.0 3 ------- null}
- -t 0.530288 -s 3 -d 0 -p ack -e 40 -c 1 -i 10 -a 1 -x {5.0 0.0 3 ------- null}
h -t 0.530288 -s 3 -d 0 -p ack -e 40 -c 1 -i 10 -a 1 -x {5.0 0.0 -1 ------- null}
r -t 0.538608 -s 4 -d 3 -p ack -e 40 -c 1 -i 11 -a 1 -x {5.0 0.0 4 ------- null}
+ -t 0.538608 -s 3 -d 0 -p ack -e 40 -c 1 -i 11 -a 1 -x {5.0 0.0 4 ------- null}
- -t 0.538608 -s 3 -d 0 -p ack -e 40 -c 1 -i 11 -a 1 -x {5.0 0.0 4 ------- null}
h -t 0.538608 -s 3 -d 0 -p ack -e 40 -c 1 -i 11 -a 1 -x {5.0 0.0 -1 ------- null}
r -t 0.540309333333333 -s 3 -d 0 -p ack -e 40 -c 1 -i 10 -a 1 -x {5.0 0.0 3 ------- null}
+ -t 0.540309333333333 -s 0 -d 3 -p tcp -e 1040 -c 1 -i 15 -a 1 -x {0.0 5.0 7 ------- null}
- -t 0.540309333333333 -s 0 -d 3 -p tcp -e 1040 -c 1 -i 15 -a 1 -x {0.0 5.0 7 ------- null}
h -t 0.540309333333333 -s 0 -d 3 -p tcp -e 1040 -c 1 -i 15 -a 1 -x {0.0 5.0 -1 ------- null}
+ -t 0.540309333333333 -s 0 -d 3 -p tcp -e 1040 -c 1 -i 16 -a 1 -x {0.0 5.0 8 ------- null}
r -t 0.540341333333333 -s 3 -d 4 -p tcp -e 40 -c 2 -i 14 -a 2 -x {1.0 6.0 0 ------- null}
+ -t 0.540341333333333 -s 4 -d 6 -p tcp -e 40 -c 2 -i 14 -a 2 -x {1.0 6.0 0 ------- null}
- -t 0.540341333333333 -s 4 -d 6 -p tcp -e 40 -c 2 -i 14 -a 2 -x {1.0 6.0 0 ------- null}
h -t 0.540341333333333 -s 4 -d 6 -p tcp -e 40 -c 2 -i 14 -a 2 -x {1.0 6.0 -1 ------- null}
- -t 0.540864 -s 0 -d 3 -p tcp -e 1040 -c 1 -i 16 -a 1 -x {0.0 5.0 8 ------- null}
h -t 0.540864 -s 0 -d 3 -p tcp -e 1040 -c 1 -i 16 -a 1 -x {0.0 5.0 -1 ------- null}
r -t 0.546928 -s 4 -d 3 -p ack -e 40 -c 1 -i 12 -a 1 -x {5.0 0.0 5 ------- null}
+ -t 0.546928 -s 3 -d 0 -p ack -e 40 -c 1 -i 12 -a 1 -x {5.0 0.0 5 ------- null}
- -t 0.546928 -s 3 -d 0 -p ack -e 40 -c 1 -i 12 -a 1 -x {5.0 0.0 5 ------- null}
h -t 0.546928 -s 3 -d 0 -p ack -e 40 -c 1 -i 12 -a 1 -x {5.0 0.0 -1 ------- null}
r -t 0.548629333333333 -s 3 -d 0 -p ack -e 40 -c 1 -i 11 -a 1 -x {5.0 0.0 4 ------- null}
+ -t 0.548629333333333 -s 0 -d 3 -p tcp -e 1040 -c 1 -i 17 -a 1 -x {0.0 5.0 9 ------- null}
- -t 0.548629333333333 -s 0 -d 3 -p tcp -e 1040 -c 1 -i 17 -a 1 -x {0.0 5.0 9 ------- null}
h -t 0.548629333333333 -s 0 -d 3 -p tcp -e 1040 -c 1 -i 17 -a 1 -x {0.0 5.0 -1 ------- null}
+ -t 0.548629333333333 -s 0 -d 3 -p tcp -e 1040 -c 1 -i 18 -a 1 -x {0.0 5.0 10 ------- null}
- -t 0.549184 -s 0 -d 3 -p tcp -e 1040 -c 1 -i 18 -a 1 -x {0.0 5.0 10 ------- null}
h -t 0.549184 -s 0 -d 3 -p tcp -e 1040 -c 1 -i 18 -a 1 -x {0.0 5.0 -1 ------- null}
r -t 0.550864 -s 0 -d 3 -p tcp -e 1040 -c 1 -i 15 -a 1 -x {0.0 5.0 7 ------- null}
+ -t 0.550864 -s 3 -d 4 -p tcp -e 1040 -c 1 -i 15 -a 1 -x {0.0 5.0 7 ------- null}
- -t 0.550864 -s 3 -d 4 -p tcp -e 1040 -c 1 -i 15 -a 1 -x {0.0 5.0 7 ------- null}
h -t 0.550864 -s 3 -d 4 -p tcp -e 1040 -c 1 -i 15 -a 1 -x {0.0 5.0 -1 ------- null}
r -t 0.551418666666667 -s 0 -d 3 -p tcp -e 1040 -c 1 -i 16 -a 1 -x {0.0 5.0 8 ------- null}
+ -t 0.551418666666667 -s 3 -d 4 -p tcp -e 1040 -c 1 -i 16 -a 1 -x {0.0 5.0 8 ------- null}
r -t 0.555248 -s 4 -d 3 -p ack -e 40 -c 1 -i 13 -a 1 -x {5.0 0.0 6 ------- null}
+ -t 0.555248 -s 3 -d 0 -p ack -e 40 -c 1 -i 13 -a 1 -x {5.0 0.0 6 ------- null}
- -t 0.555248 -s 3 -d 0 -p ack -e 40 -c 1 -i 13 -a 1 -x {5.0 0.0 6 ------- null}
h -t 0.555248 -s 3 -d 0 -p ack -e 40 -c 1 -i 13 -a 1 -x {5.0 0.0 -1 ------- null}
r -t 0.556949333333333 -s 3 -d 0 -p ack -e 40 -c 1 -i 12 -a 1 -x {5.0 0.0 5 ------- null}
+ -t 0.556949333333333 -s 0 -d 3 -p tcp -e 1040 -c 1 -i 19 -a 1 -x {0.0 5.0 11 ------- null}
- -t 0.556949333333333 -s 0 -d 3 -p tcp -e 1040 -c 1 -i 19 -a 1 -x {0.0 5.0 11 ------- null}
h -t 0.556949333333333 -s 0 -d 3 -p tcp -e 1040 -c 1 -i 19 -a 1 -x {0.0 5.0 -1 ------- null}
+ -t 0.556949333333333 -s 0 -d 3 -p tcp -e 1040 -c 1 -i 20 -a 1 -x {0.0 5.0 12 ------- null}
- -t 0.557504 -s 0 -d 3 -p tcp -e 1040 -c 1 -i 20 -a 1 -x {0.0 5.0 12 ------- null}
h -t 0.557504 -s 0 -d 3 -p tcp -e 1040 -c 1 -i 20 -a 1 -x {0.0 5.0 -1 ------- null}
r -t 0.559184 -s 0 -d 3 -p tcp -e 1040 -c 1 -i 17 -a 1 -x {0.0 5.0 9 ------- null}
+ -t 0.559184 -s 3 -d 4 -p tcp -e 1040 -c 1 -i 17 -a 1 -x {0.0 5.0 9 ------- null}
- -t 0.559184 -s 3 -d 4 -p tcp -e 1040 -c 1 -i 16 -a 1 -x {0.0 5.0 8 ------- null}
h -t 0.559184 -s 3 -d 4 -p tcp -e 1040 -c 1 -i 16 -a 1 -x {0.0 5.0 -1 ------- null}
r -t 0.559738666666667 -s 0 -d 3 -p tcp -e 1040 -c 1 -i 18 -a 1 -x {0.0 5.0 10 ------- null}
+ -t 0.559738666666667 -s 3 -d 4 -p tcp -e 1040 -c 1 -i 18 -a 1 -x {0.0 5.0 10 ------- null}
r -t 0.565269333333333 -s 3 -d 0 -p ack -e 40 -c 1 -i 13 -a 1 -x {5.0 0.0 6 ------- null}
+ -t 0.565269333333333 -s 0 -d 3 -p tcp -e 1040 -c 1 -i 21 -a 1 -x {0.0 5.0 13 ------- null}
- -t 0.565269333333333 -s 0 -d 3 -p tcp -e 1040 -c 1 -i 21 -a 1 -x {0.0 5.0 13 ------- null}
h -t 0.565269333333333 -s 0 -d 3 -p tcp -e 1040 -c 1 -i 21 -a 1 -x {0.0 5.0 -1 ------- null}
+ -t 0.565269333333333 -s 0 -d 3 -p tcp -e 1040 -c 1 -i 22 -a 1 -x {0.0 5.0 14 ------- null}
- -t 0.565824 -s 0 -d 3 -p tcp -e 1040 -c 1 -i 22 -a 1 -x {0.0 5.0 14 ------- null}
h -t 0.565824 -s 0 -d 3 -p tcp -e 1040 -c 1 -i 22 -a 1 -x {0.0 5.0 -1 ------- null}
r -t 0.567504 -s 0 -d 3 -p tcp -e 1040 -c 1 -i 19 -a 1 -x {0.0 5.0 11 ------- null}
+ -t 0.567504 -s 3 -d 4 -p tcp -e 1040 -c 1 -i 19 -a 1 -x {0.0 5.0 11 ------- null}
- -t 0.567504 -s 3 -d 4 -p tcp -e 1040 -c 1 -i 17 -a 1 -x {0.0 5.0 9 ------- null}
h -t 0.567504 -s 3 -d 4 -p tcp -e 1040 -c 1 -i 17 -a 1 -x {0.0 5.0 -1 ------- null}
r -t 0.568058666666667 -s 0 -d 3 -p tcp -e 1040 -c 1 -i 20 -a 1 -x {0.0 5.0 12 ------- null}
+ -t 0.568058666666667 -s 3 -d 4 -p tcp -e 1040 -c 1 -i 20 -a 1 -x {0.0 5.0 12 ------- null}
r -t 0.570362666666667 -s 4 -d 6 -p tcp -e 40 -c 2 -i 14 -a 2 -x {1.0 6.0 0 ------- null}
+ -t 0.570362666666667 -s 6 -d 4 -p ack -e 40 -c 2 -i 23 -a 2 -x {6.0 1.0 0 ------- null}
- -t 0.570362666666667 -s 6 -d 4 -p ack -e 40 -c 2 -i 23 -a 2 -x {6.0 1.0 0 ------- null}
h -t 0.570362666666667 -s 6 -d 4 -p ack -e 40 -c 2 -i 23 -a 2 -x {6.0 1.0 -1 ------- null}
r -t 0.575824 -s 0 -d 3 -p tcp -e 1040 -c 1 -i 21 -a 1 -x {0.0 5.0 13 ------- null}
+ -t 0.575824 -s 3 -d 4 -p tcp -e 1040 -c 1 -i 21 -a 1 -x {0.0 5.0 13 ------- null}
- -t 0.575824 -s 3 -d 4 -p tcp -e 1040 -c 1 -i 18 -a 1 -x {0.0 5.0 10 ------- null}
h -t 0.575824 -s 3 -d 4 -p tcp -e 1040 -c 1 -i 18 -a 1 -x {0.0 5.0 -1 ------- null}
r -t 0.576378666666667 -s 0 -d 3 -p tcp -e 1040 -c 1 -i 22 -a 1 -x {0.0 5.0 14 ------- null}
+ -t 0.576378666666667 -s 3 -d 4 -p tcp -e 1040 -c 1 -i 22 -a 1 -x {0.0 5.0 14 ------- null}
- -t 0.584144 -s 3 -d 4 -p tcp -e 1040 -c 1 -i 19 -a 1 -x {0.0 5.0 11 ------- null}
h -t 0.584144 -s 3 -d 4 -p tcp -e 1040 -c 1 -i 19 -a 1 -x {0.0 5.0 -1 ------- null}
r -t 0.589184 -s 3 -d 4 -p tcp -e 1040 -c 1 -i 15 -a 1 -x {0.0 5.0 7 ------- null}
+ -t 0.589184 -s 4 -d 5 -p tcp -e 1040 -c 1 -i 15 -a 1 -x {0.0 5.0 7 ------- null}
- -t 0.589184 -s 4 -d 5 -p tcp -e 1040 -c 1 -i 15 -a 1 -x {0.0 5.0 7 ------- null}
h -t 0.589184 -s 4 -d 5 -p tcp -e 1040 -c 1 -i 15 -a 1 -x {0.0 5.0 -1 ------- null}
- -t 0.592464 -s 3 -d 4 -p tcp -e 1040 -c 1 -i 20 -a 1 -x {0.0 5.0 12 ------- null}
h -t 0.592464 -s 3 -d 4 -p tcp -e 1040 -c 1 -i 20 -a 1 -x {0.0 5.0 -1 ------- null}
r -t 0.597504 -s 3 -d 4 -p tcp -e 1040 -c 1 -i 16 -a 1 -x {0.0 5.0 8 ------- null}
+ -t 0.597504 -s 4 -d 5 -p tcp -e 1040 -c 1 -i 16 -a 1 -x {0.0 5.0 8 ------- null}
- -t 0.597504 -s 4 -d 5 -p tcp -e 1040 -c 1 -i 16 -a 1 -x {0.0 5.0 8 ------- null}
h -t 0.597504 -s 4 -d 5 -p tcp -e 1040 -c 1 -i 16 -a 1 -x {0.0 5.0 -1 ------- null}
r -t 0.600384 -s 6 -d 4 -p ack -e 40 -c 2 -i 23 -a 2 -x {6.0 1.0 0 ------- null}
+ -t 0.600384 -s 4 -d 3 -p ack -e 40 -c 2 -i 23 -a 2 -x {6.0 1.0 0 ------- null}
- -t 0.600384 -s 4 -d 3 -p ack -e 40 -c 2 -i 23 -a 2 -x {6.0 1.0 0 ------- null}
h -t 0.600384 -s 4 -d 3 -p ack -e 40 -c 2 -i 23 -a 2 -x {6.0 1.0 -1 ------- null}
- -t 0.600784 -s 3 -d 4 -p tcp -e 1040 -c 1 -i 21 -a 1 -x {0.0 5.0 13 ------- null}
h -t 0.600784 -s 3 -d 4 -p tcp -e 1040 -c 1 -i 21 -a 1 -x {0.0 5.0 -1 ------- null}
r -t 0.605824 -s 3 -d 4 -p tcp -e 1040 -c 1 -i 17 -a 1 -x {0.0 5.0 9 ------- null}
+ -t 0.605824 -s 4 -d 5 -p tcp -e 1040 -c 1 -i 17 -a 1 -x {0.0 5.0 9 ------- null}
- -t 0.605824 -s 4 -d 5 -p tcp -e 1040 -c 1 -i 17 -a 1 -x {0.0 5.0 9 ------- null}
h -t 0.605824 -s 4 -d 5 -p tcp -e 1040 -c 1 -i 17 -a 1 -x {0.0 5.0 -1 ------- null}
- -t 0.609104 -s 3 -d 4 -p tcp -e 1040 -c 1 -i 22 -a 1 -x {0.0 5.0 14 ------- null}
h -t 0.609104 -s 3 -d 4 -p tcp -e 1040 -c 1 -i 22 -a 1 -x {0.0 5.0 -1 ------- null}
r -t 0.614144 -s 3 -d 4 -p tcp -e 1040 -c 1 -i 18 -a 1 -x {0.0 5.0 10 ------- null}
+ -t 0.614144 -s 4 -d 5 -p tcp -e 1040 -c 1 -i 18 -a 1 -x {0.0 5.0 10 ------- null}
- -t 0.614144 -s 4 -d 5 -p tcp -e 1040 -c 1 -i 18 -a 1 -x {0.0 5.0 10 ------- null}
h -t 0.614144 -s 4 -d 5 -p tcp -e 1040 -c 1 -i 18 -a 1 -x {0.0 5.0 -1 ------- null}
r -t 0.619738666666667 -s 4 -d 5 -p tcp -e 1040 -c 1 -i 15 -a 1 -x {0.0 5.0 7 ------- null}
+ -t 0.619738666666667 -s 5 -d 4 -p ack -e 40 -c 1 -i 24 -a 1 -x {5.0 0.0 7 ------- null}
- -t 0.619738666666667 -s 5 -d 4 -p ack -e 40 -c 1 -i 24 -a 1 -x {5.0 0.0 7 ------- null}
h -t 0.619738666666667 -s 5 -d 4 -p ack -e 40 -c 1 -i 24 -a 1 -x {5.0 0.0 -1 ------- null}
r -t 0.622464 -s 3 -d 4 -p tcp -e 1040 -c 1 -i 19 -a 1 -x {0.0 5.0 11 ------- null}
+ -t 0.622464 -s 4 -d 5 -p tcp -e 1040 -c 1 -i 19 -a 1 -x {0.0 5.0 11 ------- null}
- -t 0.622464 -s 4 -d 5 -p tcp -e 1040 -c 1 -i 19 -a 1 -x {0.0 5.0 11 ------- null}
h -t 0.622464 -s 4 -d 5 -p tcp -e 1040 -c 1 -i 19 -a 1 -x {0.0 5.0 -1 ------- null}
r -t 0.628058666666667 -s 4 -d 5 -p tcp -e 1040 -c 1 -i 16 -a 1 -x {0.0 5.0 8 ------- null}
+ -t 0.628058666666667 -s 5 -d 4 -p ack -e 40 -c 1 -i 25 -a 1 -x {5.0 0.0 8 ------- null}
- -t 0.628058666666667 -s 5 -d 4 -p ack -e 40 -c 1 -i 25 -a 1 -x {5.0 0.0 8 ------- null}
h -t 0.628058666666667 -s 5 -d 4 -p ack -e 40 -c 1 -i 25 -a 1 -x {5.0 0.0 -1 ------- null}
r -t 0.630704 -s 4 -d 3 -p ack -e 40 -c 2 -i 23 -a 2 -x {6.0 1.0 0 ------- null}
+ -t 0.630704 -s 3 -d 1 -p ack -e 40 -c 2 -i 23 -a 2 -x {6.0 1.0 0 ------- null}
- -t 0.630704 -s 3 -d 1 -p ack -e 40 -c 2 -i 23 -a 2 -x {6.0 1.0 0 ------- null}
h -t 0.630704 -s 3 -d 1 -p ack -e 40 -c 2 -i 23 -a 2 -x {6.0 1.0 -1 ------- null}
r -t 0.630784 -s 3 -d 4 -p tcp -e 1040 -c 1 -i 20 -a 1 -x {0.0 5.0 12 ------- null}
+ -t 0.630784 -s 4 -d 5 -p tcp -e 1040 -c 1 -i 20 -a 1 -x {0.0 5.0 12 ------- null}
- -t 0.630784 -s 4 -d 5 -p tcp -e 1040 -c 1 -i 20 -a 1 -x {0.0 5.0 12 ------- null}
h -t 0.630784 -s 4 -d 5 -p tcp -e 1040 -c 1 -i 20 -a 1 -x {0.0 5.0 -1 ------- null}
r -t 0.636378666666667 -s 4 -d 5 -p tcp -e 1040 -c 1 -i 17 -a 1 -x {0.0 5.0 9 ------- null}
+ -t 0.636378666666667 -s 5 -d 4 -p ack -e 40 -c 1 -i 26 -a 1 -x {5.0 0.0 9 ------- null}
- -t 0.636378666666667 -s 5 -d 4 -p ack -e 40 -c 1 -i 26 -a 1 -x {5.0 0.0 9 ------- null}
h -t 0.636378666666667 -s 5 -d 4 -p ack -e 40 -c 1 -i 26 -a 1 -x {5.0 0.0 -1 ------- null}
r -t 0.639104 -s 3 -d 4 -p tcp -e 1040 -c 1 -i 21 -a 1 -x {0.0 5.0 13 ------- null}
+ -t 0.639104 -s 4 -d 5 -p tcp -e 1040 -c 1 -i 21 -a 1 -x {0.0 5.0 13 ------- null}
- -t 0.639104 -s 4 -d 5 -p tcp -e 1040 -c 1 -i 21 -a 1 -x {0.0 5.0 13 ------- null}
h -t 0.639104 -s 4 -d 5 -p tcp -e 1040 -c 1 -i 21 -a 1 -x {0.0 5.0 -1 ------- null}
r -t 0.640725333333333 -s 3 -d 1 -p ack -e 40 -c 2 -i 23 -a 2 -x {6.0 1.0 0 ------- null}
+ -t 0.640725333333333 -s 1 -d 3 -p tcp -e 1040 -c 2 -i 27 -a 2 -x {1.0 6.0 1 ------- null}
- -t 0.640725333333333 -s 1 -d 3 -p tcp -e 1040 -c 2 -i 27 -a 2 -x {1.0 6.0 1 ------- null}
h -t 0.640725333333333 -s 1 -d 3 -p tcp -e 1040 -c 2 -i 27 -a 2 -x {1.0 6.0 -1 ------- null}
+ -t 0.640725333333333 -s 1 -d 3 -p tcp -e 1040 -c 2 -i 28 -a 2 -x {1.0 6.0 2 ------- null}
- -t 0.64128 -s 1 -d 3 -p tcp -e 1040 -c 2 -i 28 -a 2 -x {1.0 6.0 2 ------- null}
h -t 0.64128 -s 1 -d 3 -p tcp -e 1040 -c 2 -i 28 -a 2 -x {1.0 6.0 -1 ------- null}
r -t 0.644698666666667 -s 4 -d 5 -p tcp -e 1040 -c 1 -i 18 -a 1 -x {0.0 5.0 10 ------- null}
+ -t 0.644698666666667 -s 5 -d 4 -p ack -e 40 -c 1 -i 29 -a 1 -x {5.0 0.0 10 ------- null}
- -t 0.644698666666667 -s 5 -d 4 -p ack -e 40 -c 1 -i 29 -a 1 -x {5.0 0.0 10 ------- null}
h -t 0.644698666666667 -s 5 -d 4 -p ack -e 40 -c 1 -i 29 -a 1 -x {5.0 0.0 -1 ------- null}
r -t 0.647424 -s 3 -d 4 -p tcp -e 1040 -c 1 -i 22 -a 1 -x {0.0 5.0 14 ------- null}
+ -t 0.647424 -s 4 -d 5 -p tcp -e 1040 -c 1 -i 22 -a 1 -x {0.0 5.0 14 ------- null}
- -t 0.647424 -s 4 -d 5 -p tcp -e 1040 -c 1 -i 22 -a 1 -x {0.0 5.0 14 ------- null}
h -t 0.647424 -s 4 -d 5 -p tcp -e 1040 -c 1 -i 22 -a 1 -x {0.0 5.0 -1 ------- null}
r -t 0.64976 -s 5 -d 4 -p ack -e 40 -c 1 -i 24 -a 1 -x {5.0 0.0 7 ------- null}
+ -t 0.64976 -s 4 -d 3 -p ack -e 40 -c 1 -i 24 -a 1 -x {5.0 0.0 7 ------- null}
- -t 0.64976 -s 4 -d 3 -p ack -e 40 -c 1 -i 24 -a 1 -x {5.0 0.0 7 ------- null}
h -t 0.64976 -s 4 -d 3 -p ack -e 40 -c 1 -i 24 -a 1 -x {5.0 0.0 -1 ------- null}
r -t 0.65128 -s 1 -d 3 -p tcp -e 1040 -c 2 -i 27 -a 2 -x {1.0 6.0 1 ------- null}
+ -t 0.65128 -s 3 -d 4 -p tcp -e 1040 -c 2 -i 27 -a 2 -x {1.0 6.0 1 ------- null}
- -t 0.65128 -s 3 -d 4 -p tcp -e 1040 -c 2 -i 27 -a 2 -x {1.0 6.0 1 ------- null}
h -t 0.65128 -s 3 -d 4 -p tcp -e 1040 -c 2 -i 27 -a 2 -x {1.0 6.0 -1 ------- null}
r -t 0.651834666666667 -s 1 -d 3 -p tcp -e 1040 -c 2 -i 28 -a 2 -x {1.0 6.0 2 ------- null}
+ -t 0.651834666666667 -s 3 -d 4 -p tcp -e 1040 -c 2 -i 28 -a 2 -x {1.0 6.0 2 ------- null}
r -t 0.653018666666667 -s 4 -d 5 -p tcp -e 1040 -c 1 -i 19 -a 1 -x {0.0 5.0 11 ------- null}
+ -t 0.653018666666667 -s 5 -d 4 -p ack -e 40 -c 1 -i 30 -a 1 -x {5.0 0.0 11 ------- null}
- -t 0.653018666666667 -s 5 -d 4 -p ack -e 40 -c 1 -i 30 -a 1 -x {5.0 0.0 11 ------- null}
h -t 0.653018666666667 -s 5 -d 4 -p ack -e 40 -c 1 -i 30 -a 1 -x {5.0 0.0 -1 ------- null}
r -t 0.65808 -s 5 -d 4 -p ack -e 40 -c 1 -i 25 -a 1 -x {5.0 0.0 8 ------- null}
+ -t 0.65808 -s 4 -d 3 -p ack -e 40 -c 1 -i 25 -a 1 -x {5.0 0.0 8 ------- null}
- -t 0.65808 -s 4 -d 3 -p ack -e 40 -c 1 -i 25 -a 1 -x {5.0 0.0 8 ------- null}
h -t 0.65808 -s 4 -d 3 -p ack -e 40 -c 1 -i 25 -a 1 -x {5.0 0.0 -1 ------- null}
- -t 0.6596 -s 3 -d 4 -p tcp -e 1040 -c 2 -i 28 -a 2 -x {1.0 6.0 2 ------- null}
h -t 0.6596 -s 3 -d 4 -p tcp -e 1040 -c 2 -i 28 -a 2 -x {1.0 6.0 -1 ------- null}
r -t 0.661338666666667 -s 4 -d 5 -p tcp -e 1040 -c 1 -i 20 -a 1 -x {0.0 5.0 12 ------- null}
+ -t 0.661338666666667 -s 5 -d 4 -p ack -e 40 -c 1 -i 31 -a 1 -x {5.0 0.0 12 ------- null}
- -t 0.661338666666667 -s 5 -d 4 -p ack -e 40 -c 1 -i 31 -a 1 -x {5.0 0.0 12 ------- null}
h -t 0.661338666666667 -s 5 -d 4 -p ack -e 40 -c 1 -i 31 -a 1 -x {5.0 0.0 -1 ------- null}
r -t 0.6664 -s 5 -d 4 -p ack -e 40 -c 1 -i 26 -a 1 -x {5.0 0.0 9 ------- null}
+ -t 0.6664 -s 4 -d 3 -p ack -e 40 -c 1 -i 26 -a 1 -x {5.0 0.0 9 ------- null}
- -t 0.6664 -s 4 -d 3 -p ack -e 40 -c 1 -i 26 -a 1 -x {5.0 0.0 9 ------- null}
h -t 0.6664 -s 4 -d 3 -p ack -e 40 -c 1 -i 26 -a 1 -x {5.0 0.0 -1 ------- null}
r -t 0.669658666666667 -s 4 -d 5 -p tcp -e 1040 -c 1 -i 21 -a 1 -x {0.0 5.0 13 ------- null}
+ -t 0.669658666666667 -s 5 -d 4 -p ack -e 40 -c 1 -i 32 -a 1 -x {5.0 0.0 13 ------- null}
- -t 0.669658666666667 -s 5 -d 4 -p ack -e 40 -c 1 -i 32 -a 1 -x {5.0 0.0 13 ------- null}
h -t 0.669658666666667 -s 5 -d 4 -p ack -e 40 -c 1 -i 32 -a 1 -x {5.0 0.0 -1 ------- null}
r -t 0.67472 -s 5 -d 4 -p ack -e 40 -c 1 -i 29 -a 1 -x {5.0 0.0 10 ------- null}
+ -t 0.67472 -s 4 -d 3 -p ack -e 40 -c 1 -i 29 -a 1 -x {5.0 0.0 10 ------- null}
- -t 0.67472 -s 4 -d 3 -p ack -e 40 -c 1 -i 29 -a 1 -x {5.0 0.0 10 ------- null}
h -t 0.67472 -s 4 -d 3 -p ack -e 40 -c 1 -i 29 -a 1 -x {5.0 0.0 -1 ------- null}