V -t * -v 1.0a5 -a 0
A -t * -n 1 -p 0 -o 0x7fffffff -c 30 -a 1
A -t * -h 1 -m 1073741823 -s 0
n -t * -a 17 -s 17 -S UP -v circle -c black -i black
n -t * -a 0 -s 0 -S UP -v circle -c black -i black
n -t * -a 18 -s 18 -S UP -v circle -c black -i black
n -t * -a 1 -s 1 -S UP -v circle -c black -i black
n -t * -a 19 -s 19 -S UP -v circle -c black -i black
n -t * -a 2 -s 2 -S UP -v circle -c black -i black
n -t * -a 3 -s 3 -S UP -v circle -c black -i black
n -t * -a 4 -s 4 -S UP -v circle -c black -i black
n -t * -a 5 -s 5 -S UP -v circle -c black -i black
n -t * -a 6 -s 6 -S UP -v circle -c black -i black
n -t * -a 7 -s 7 -S UP -v circle -c black -i black
n -t * -a 8 -s 8 -S UP -v circle -c black -i black
n -t * -a 9 -s 9 -S UP -v circle -c black -i black
n -t * -a 10 -s 10 -S UP -v circle -c black -i black
n -t * -a 11 -s 11 -S UP -v circle -c black -i black
n -t * -a 12 -s 12 -S UP -v circle -c black -i black
n -t * -a 13 -s 13 -S UP -v circle -c black -i black
n -t * -a 14 -s 14 -S UP -v circle -c black -i black
n -t * -a 15 -s 15 -S UP -v circle -c black -i black
n -t * -a 16 -s 16 -S UP -v circle -c black -i black
l -t * -s 0 -d 1 -S UP -r 1000000 -D 0.029999999999999999 -c black -o right
l -t * -s 2 -d 0 -S UP -r 15000000 -D 0.01 -c black
l -t * -s 3 -d 1 -S UP -r 15000000 -D 0.01 -c black
l -t * -s 4 -d 0 -S UP -r 15000000 -D 0.01 -c black
l -t * -s 5 -d 1 -S UP -r 15000000 -D 0.01 -c black
l -t * -s 6 -d 0 -S UP -r 15000000 -D 0.01 -c black
l -t * -s 7 -d 1 -S UP -r 15000000 -D 0.01 -c black
l -t * -s 8 -d 0 -S UP -r 15000000 -D 0.01 -c black
l -t * -s 9 -d 1 -S UP -r 15000000 -D 0.01 -c black
l -t * -s 10 -d 0 -S UP -r 15000000 -D 0.01 -c black
l -t * -s 11 -d 1 -S UP -r 15000000 -D 0.01 -c black
l -t * -s 12 -d 0 -S UP -r 15000000 -D 0.01 -c black
l -t * -s 13 -d 1 -S UP -r 15000000 -D 0.01 -c black
l -t * -s 14 -d 0 -S UP -r 15000000 -D 0.01 -c black
l -t * -s 15 -d 1 -S UP -r 15000000 -D 0.01 -c black
l -t * -s 16 -d 0 -S UP -r 15000000 -D 0.01 -c black
l -t * -s 17 -d 1 -S UP -r 15000000 -D 0.01 -c black
l -t * -s 18 -d 0 -S UP -r 15000000 -D 0.01 -c black
l -t * -s 19 -d 1 -S UP -r 15000000 -D 0.01 -c black
q -t * -s 0 -d 1 -a 0
q -t * -s 1 -d 0 -a 0
+ -t 0.5 -s 12 -d 0 -p tcp -e 40 -c 0 -i 0 -a 0 -x {12.0 13.0 0 ------- null}
- -t 0.5 -s 12 -d 0 -p tcp -e 40 -c 0 -i 0 -a 0 -x {12.0 13.0 0 ------- null}
h -t 0.5 -s 12 -d 0 -p tcp -e 40 -c 0 -i 0 -a 0 -x {12.0 13.0 -1 ------- null}
+ -t 0.5 -s 2 -d 0 -p tcp -e 40 -c 1 -i 1 -a 1 -x {2.0 11.0 0 ------- null}
- -t 0.5 -s 2 -d 0 -p tcp -e 40 -c 1 -i 1 -a 1 -x {2.0 11.0 0 ------- null}
h -t 0.5 -s 2 -d 0 -p tcp -e 40 -c 1 -i 1 -a 1 -x {2.0 11.0 -1 ------- null}
+ -t 0.5 -s 12 -d 0 -p tcp -e 40 -c 2 -i 2 -a 2 -x {12.1 19.0 0 ------- null}
+ -t 0.5 -s 18 -d 0 -p tcp -e 40 -c 3 -i 3 -a 3 -x {18.0 3.0 0 ------- null}
- -t 0.5 -s 18 -d 0 -p tcp -e 40 -c 3 -i 3 -a 3 -x {18.0 3.0 0 ------- null}
h -t 0.5 -s 18 -d 0 -p tcp -e 40 -c 3 -i 3 -a 3 -x {18.0 3.0 -1 ------- null}
+ -t 0.5 -s 10 -d 0 -p tcp -e 40 -c 4 -i 4 -a 4 -x {10.0 11.1 0 ------- null}
- -t 0.5 -s 10 -d 0 -p tcp -e 40 -c 4 -i 4 -a 4 -x {10.0 11.1 0 ------- null}
h -t 0.5 -s 10 -d 0 -p tcp -e 40 -c 4 -i 4 -a 4 -x {10.0 11.1 -1 ------- null}
+ -t 0.5 -s 14 -d 0 -p tcp -e 40 -c 5 -i 5 -a 5 -x {14.0 15.0 0 ------- null}
- -t 0.5 -s 14 -d 0 -p tcp -e 40 -c 5 -i 5 -a 5 -x {14.0 15.0 0 ------- null}
h -t 0.5 -s 14 -d 0 -p tcp -e 40 -c 5 -i 5 -a 5 -x {14.0 15.0 -1 ------- null}
+ -t 0.5 -s 14 -d 0 -p tcp -e 40 -c 6 -i 6 -a 6 -x {14.1 13.1 0 ------- null}
+ -t 0.5 -s 10 -d 0 -p tcp -e 40 -c 7 -i 7 -a 7 -x {10.1 19.1 0 ------- null}
+ -t 0.5 -s 8 -d 0 -p tcp -e 40 -c 8 -i 8 -a 8 -x {8.0 7.0 0 ------- null}
- -t 0.5 -s 8 -d 0 -p tcp -e 40 -c 8 -i 8 -a 8 -x {8.0 7.0 0 ------- null}
h -t 0.5 -s 8 -d 0 -p tcp -e 40 -c 8 -i 8 -a 8 -x {8.0 7.0 -1 ------- null}
+ -t 0.5 -s 2 -d 0 -p tcp -e 40 -c 9 -i 9 -a 9 -x {2.1 15.1 0 ------- null}
- -t 0.500021333333333 -s 12 -d 0 -p tcp -e 40 -c 2 -i 2 -a 2 -x {12.1 19.0 0 ------- null}
h -t 0.500021333333333 -s 12 -d 0 -p tcp -e 40 -c 2 -i 2 -a 2 -x {12.1 19.0 -1 ------- null}
- -t 0.500021333333333 -s 2 -d 0 -p tcp -e 40 -c 9 -i 9 -a 9 -x {2.1 15.1 0 ------- null}
h -t 0.500021333333333 -s 2 -d 0 -p tcp -e 40 -c 9 -i 9 -a 9 -x {2.1 15.1 -1 ------- null}
- -t 0.500021333333333 -s 10 -d 0 -p tcp -e 40 -c 7 -i 7 -a 7 -x {10.1 19.1 0 ------- null}
h -t 0.500021333333333 -s 10 -d 0 -p tcp -e 40 -c 7 -i 7 -a 7 -x {10.1 19.1 -1 ------- null}
- -t 0.500021333333333 -s 14 -d 0 -p tcp -e 40 -c 6 -i 6 -a 6 -x {14.1 13.1 0 ------- null}
h -t 0.500021333333333 -s 14 -d 0 -p tcp -e 40 -c 6 -i 6 -a 6 -x {14.1 13.1 -1 ------- null}
r -t 0.510021333333333 -s 12 -d 0 -p tcp -e 40 -c 0 -i 0 -a 0 -x {12.0 13.0 0 ------- null}
+ -t 0.510021333333333 -s 0 -d 1 -p tcp -e 40 -c 0 -i 0 -a 0 -x {12.0 13.0 0 ------- null}
- -t 0.510021333333333 -s 0 -d 1 -p tcp -e 40 -c 0 -i 0 -a 0 -x {12.0 13.0 0 ------- null}
h -t 0.510021333333333 -s 0 -d 1 -p tcp -e 40 -c 0 -i 0 -a 0 -x {12.0 13.0 -1 ------- null}
r -t 0.510021333333333 -s 2 -d 0 -p tcp -e 40 -c 1 -i 1 -a 1 -x {2.0 11.0 0 ------- null}
+ -t 0.510021333333333 -s 0 -d 1 -p tcp -e 40 -c 1 -i 1 -a 1 -x {2.0 11.0 0 ------- null}
r -t 0.510021333333333 -s 18 -d 0 -p tcp -e 40 -c 3 -i 3 -a 3 -x {18.0 3.0 0 ------- null}
+ -t 0.510021333333333 -s 0 -d 1 -p tcp -e 40 -c 3 -i 3 -a 3 -x {18.0 3.0 0 ------- null}
r -t 0.510021333333333 -s 10 -d 0 -p tcp -e 40 -c 4 -i 4 -a 4 -x {10.0 11.1 0 ------- null}
+ -t 0.510021333333333 -s 0 -d 1 -p tcp -e 40 -c 4 -i 4 -a 4 -x {10.0 11.1 0 ------- null}
r -t 0.510021333333333 -s 14 -d 0 -p tcp -e 40 -c 5 -i 5 -a 5 -x {14.0 15.0 0 ------- null}
+ -t 0.510021333333333 -s 0 -d 1 -p tcp -e 40 -c 5 -i 5 -a 5 -x {14.0 15.0 0 ------- null}
r -t 0.510021333333333 -s 8 -d 0 -p tcp -e 40 -c 8 -i 8 -a 8 -x {8.0 7.0 0 ------- null}
+ -t 0.510021333333333 -s 0 -d 1 -p tcp -e 40 -c 8 -i 8 -a 8 -x {8.0 7.0 0 ------- null}
r -t 0.510042666666667 -s 12 -d 0 -p tcp -e 40 -c 2 -i 2 -a 2 -x {12.1 19.0 0 ------- null}
+ -t 0.510042666666667 -s 0 -d 1 -p tcp -e 40 -c 2 -i 2 -a 2 -x {12.1 19.0 0 ------- null}
r -t 0.510042666666667 -s 2 -d 0 -p tcp -e 40 -c 9 -i 9 -a 9 -x {2.1 15.1 0 ------- null}
+ -t 0.510042666666667 -s 0 -d 1 -p tcp -e 40 -c 9 -i 9 -a 9 -x {2.1 15.1 0 ------- null}
r -t 0.510042666666667 -s 10 -d 0 -p tcp -e 40 -c 7 -i 7 -a 7 -x {10.1 19.1 0 ------- null}
+ -t 0.510042666666667 -s 0 -d 1 -p tcp -e 40 -c 7 -i 7 -a 7 -x {10.1 19.1 0 ------- null}
r -t 0.510042666666667 -s 14 -d 0 -p tcp -e 40 -c 6 -i 6 -a 6 -x {14.1 13.1 0 ------- null}
+ -t 0.510042666666667 -s 0 -d 1 -p tcp -e 40 -c 6 -i 6 -a 6 -x {14.1 13.1 0 ------- null}
- -t 0.510341333333333 -s 0 -d 1 -p tcp -e 40 -c 1 -i 1 -a 1 -x {2.0 11.0 0 ------- null}
h -t 0.510341333333333 -s 0 -d 1 -p tcp -e 40 -c 1 -i 1 -a 1 -x {2.0 11.0 -1 ------- null}
- -t 0.510661333333333 -s 0 -d 1 -p tcp -e 40 -c 3 -i 3 -a 3 -x {18.0 3.0 0 ------- null}
h -t 0.510661333333333 -s 0 -d 1 -p tcp -e 40 -c 3 -i 3 -a 3 -x {18.0 3.0 -1 ------- null}
- -t 0.510981333333333 -s 0 -d 1 -p tcp -e 40 -c 4 -i 4 -a 4 -x {10.0 11.1 0 ------- null}
h -t 0.510981333333333 -s 0 -d 1 -p tcp -e 40 -c 4 -i 4 -a 4 -x {10.0 11.1 -1 ------- null}
- -t 0.511301333333333 -s 0 -d 1 -p tcp -e 40 -c 5 -i 5 -a 5 -x {14.0 15.0 0 ------- null}
h -t 0.511301333333333 -s 0 -d 1 -p tcp -e 40 -c 5 -i 5 -a 5 -x {14.0 15.0 -1 ------- null}
- -t 0.511621333333333 -s 0 -d 1 -p tcp -e 40 -c 8 -i 8 -a 8 -x {8.0 7.0 0 ------- null}
h -t 0.511621333333333 -s 0 -d 1 -p tcp -e 40 -c 8 -i 8 -a 8 -x {8.0 7.0 -1 ------- null}
- -t 0.511941333333333 -s 0 -d 1 -p tcp -e 40 -c 2 -i 2 -a 2 -x {12.1 19.0 0 ------- null}
h -t 0.511941333333333 -s 0 -d 1 -p tcp -e 40 -c 2 -i 2 -a 2 -x {12.1 19.0 -1 ------- null}
- -t 0.512261333333333 -s 0 -d 1 -p tcp -e 40 -c 9 -i 9 -a 9 -x {2.1 15.1 0 ------- null}
h -t 0.512261333333333 -s 0 -d 1 -p tcp -e 40 -c 9 -i 9 -a 9 -x {2.1 15.1 -1 ------- null}
- -t 0.512581333333333 -s 0 -d 1 -p tcp -e 40 -c 7 -i 7 -a 7 -x {10.1 19.1 0 ------- null}
h -t 0.512581333333333 -s 0 -d 1 -p tcp -e 40 -c 7 -i 7 -a 7 -x {10.1 19.1 -1 ------- null}
- -t 0.512901333333333 -s 0 -d 1 -p tcp -e 40 -c 6 -i 6 -a 6 -x {14.1 13.1 0 ------- null}
h -t 0.512901333333333 -s 0 -d 1 -p tcp -e 40 -c 6 -i 6 -a 6 -x {14.1 13.1 -1 ------- null}
r -t 0.540341333333333 -s 0 -d 1 -p tcp -e 40 -c 0 -i 0 -a 0 -x {12.0 13.0 0 ------- null}
+ -t 0.540341333333333 -s 1 -d 13 -p tcp -e 40 -c 0 -i 0 -a 0 -x {12.0 13.0 0 ------- null}
- -t 0.540341333333333 -s 1 -d 13 -p tcp -e 40 -c 0 -i 0 -a 0 -x {12.0 13.0 0 ------- null}
h -t 0.540341333333333 -s 1 -d 13 -p tcp -e 40 -c 0 -i 0 -a 0 -x {12.0 13.0 -1 ------- null}
r -t 0.540661333333333 -s 0 -d 1 -p tcp -e 40 -c 1 -i 1 -a 1 -x {2.0 11.0 0 ------- null}
+ -t 0.540661333333333 -s 1 -d 11 -p tcp -e 40 -c 1 -i 1 -a 1 -x {2.0 11.0 0 ------- null}
- -t 0.540661333333333 -s 1 -d 11 -p tcp -e 40 -c 1 -i 1 -a 1 -x {2.0 11.0 0 ------- null}
h -t 0.540661333333333 -s 1 -d 11 -p tcp -e 40 -c 1 -i 1 -a 1 -x {2.0 11.0 -1 ------- null}
r -t 0.540981333333333 -s 0 -d 1 -p tcp -e 40 -c 3 -i 3 -a 3 -x {18.0 3.0 0 ------- null}
+ -t 0.540981333333333 -s 1 -d 3 -p tcp -e 40 -c 3 -i 3 -a 3 -x {18.0 3.0 0 ------- null}
- -t 0.540981333333333 -s 1 -d 3 -p tcp -e 40 -c 3 -i 3 -a 3 -x {18.0 3.0 0 ------- null}
h -t 0.540981333333333 -s 1 -d 3 -p tcp -e 40 -c 3 -i 3 -a 3 -x {18.0 3.0 -1 ------- null}
r -t 0.541301333333333 -s 0 -d 1 -p tcp -e 40 -c 4 -i 4 -a 4 -x {10.0 11.1 0 ------- null}
+ -t 0.541301333333333 -s 1 -d 11 -p tcp -e 40 -c 4 -i 4 -a 4 -x {10.0 11.1 0 ------- null}
- -t 0.541301333333333 -s 1 -d 11 -p tcp -e 40 -c 4 -i 4 -a 4 -x {10.0 11.1 0 ------- null}
h -t 0.541301333333333 -s 1 -d 11 -p tcp -e 40 -c 4 -i 4 -a 4 -x {10.0 11.1 -1 ------- null}
r -t 0.541621333333333 -s 0 -d 1 -p tcp -e 40 -c 5 -i 5 -a 5 -x {14.0 15.0 0 ------- null}
+ -t 0.541621333333333 -s 1 -d 15 -p tcp -e 40 -c 5 -i 5 -a 5 -x {14.0 15.0 0 ------- null}
- -t 0.541621333333333 -s 1 -d 15 -p tcp -e 40 -c 5 -i 5 -a 5 -x {14.0 15.0 0 ------- null}
h -t 0.541621333333333 -s 1 -d 15 -p tcp -e 40 -c 5 -i 5 -a 5 -x {14.0 15.0 -1 ------- null}
r -t 0.541941333333333 -s 0 -d 1 -p tcp -e 40 -c 8 -i 8 -a 8 -x {8.0 7.0 0 ------- null}
+ -t 0.541941333333333 -s 1 -d 7 -p tcp -e 40 -c 8 -i 8 -a 8 -x {8.0 7.0 0 ------- null}
- -t 0.541941333333333 -s 1 -d 7 -p tcp -e 40 -c 8 -i 8 -a 8 -x {8.0 7.0 0 ------- null}
h -t 0.541941333333333 -s 1 -d 7 -p tcp -e 40 -c 8 -i 8 -a 8 -x {8.0 7.0 -1 ------- null}
r -t 0.542261333333333 -s 0 -d 1 -p tcp -e 40 -c 2 -i 2 -a 2 -x {12.1 19.0 0 ------- null}
+ -t 0.542261333333333 -s 1 -d 19 -p tcp -e 40 -c 2 -i 2 -a 2 -x {12.1 19.0 0 ------- null}
- -t 0.542261333333333 -s 1 -d 19 -p tcp -e 40 -c 2 -i 2 -a 2 -x {12.1 19.0 0 ------- null}
h -t 0.542261333333333 -s 1 -d 19 -p tcp -e 40 -c 2 -i 2 -a 2 -x {12.1 19.0 -1 ------- null}
r -t 0.542581333333333 -s 0 -d 1 -p tcp -e 40 -c 9 -i 9 -a 9 -x {2.1 15.1 0 ------- null}
+ -t 0.542581333333333 -s 1 -d 15 -p tcp -e 40 -c 9 -i 9 -a 9 -x {2.1 15.1 0 ------- null}
- -t 0.542581333333333 -s 1 -d 15 -p tcp -e 40 -c 9 -i 9 -a 9 -x {2.1 15.1 0 ------- null}
h -t 0.542581333333333 -s 1 -d 15 -p tcp -e 40 -c 9 -i 9 -a 9 -x {2.1 15.1 -1 ------- null}
r -t 0.542901333333333 -s 0 -d 1 -p tcp -e 40 -c 7 -i 7 -a 7 -x {10.1 19.1 0 ------- null}
+ -t 0.542901333333333 -s 1 -d 19 -p tcp -e 40 -c 7 -i 7 -a 7 -x {10.1 19.1 0 ------- null}
- -t 0.542901333333333 -s 1 -d 19 -p tcp -e 40 -c 7 -i 7 -a 7 -x {10.1 19.1 0 ------- null}
h -t 0.542901333333333 -s 1 -d 19 -p tcp -e 40 -c 7 -i 7 -a 7 -x {10.1 19.1 -1 ------- null}
r -t 0.543221333333333 -s 0 -d 1 -p tcp -e 40 -c 6 -i 6 -a 6 -x {14.1 13.1 0 ------- null}
+ -t 0.543221333333333 -s 1 -d 13 -p tcp -e 40 -c 6 -i 6 -a 6 -x {14.1 13.1 0 ------- null}
- -t 0.543221333333333 -s 1 -d 13 -p tcp -e 40 -c 6 -i 6 -a 6 -x {14.1 13.1 0 ------- null}
h -t 0.543221333333333 -s 1 -d 13 -p tcp -e 40 -c 6 -i 6 -a 6 -x {14.1 13.1 -1 ------- null}
r -t 0.550362666666667 -s 1 -d 13 -p tcp -e 40 -c 0 -i 0 -a 0 -x {12.0 13.0 0 ------- null}
+ -t 0.550362666666667 -s 13 -d 1 -p ack -e 40 -c 0 -i 10 -a 0 -x {13.0 12.0 0 ------- null}
- -t 0.550362666666667 -s 13 -d 1 -p ack -e 40 -c 0 -i 10 -a 0 -x {13.0 12.0 0 ------- null}
h -t 0.550362666666667 -s 13 -d 1 -p ack -e 40 -c 0 -i 10 -a 0 -x {13.0 12.0 -1 ------- null}
r -t 0.550682666666667 -s 1 -d 11 -p tcp -e 40 -c 1 -i 1 -a 1 -x {2.0 11.0 0 ------- null}
+ -t 0.550682666666667 -s 11 -d 1 -p ack -e 40 -c 1 -i 11 -a 1 -x {11.0 2.0 0 ------- null}
- -t 0.550682666666667 -s 11 -d 1 -p ack -e 40 -c 1 -i 11 -a 1 -x {11.0 2.0 0 ------- null}
h -t 0.550682666666667 -s 11 -d 1 -p ack -e 40 -c 1 -i 11 -a 1 -x {11.0 2.0 -1 ------- null}
r -t 0.551002666666667 -s 1 -d 3 -p tcp -e 40 -c 3 -i 3 -a 3 -x {18.0 3.0 0 ------- null}
+ -t 0.551002666666667 -s 3 -d 1 -p ack -e 40 -c 3 -i 12 -a 3 -x {3.0 18.0 0 ------- null}
- -t 0.551002666666667 -s 3 -d 1 -p ack -e 40 -c 3 -i 12 -a 3 -x {3.0 18.0 0 ------- null}
h -t 0.551002666666667 -s 3 -d 1 -p ack -e 40 -c 3 -i 12 -a 3 -x {3.0 18.0 -1 ------- null}
r -t 0.551322666666667 -s 1 -d 11 -p tcp -e 40 -c 4 -i 4 -a 4 -x {10.0 11.1 0 ------- null}
+ -t 0.551322666666667 -s 11 -d 1 -p ack -e 40 -c 4 -i 13 -a 4 -x {11.1 10.0 0 ------- null}
- -t 0.551322666666667 -s 11 -d 1 -p ack -e 40 -c 4 -i 13 -a 4 -x {11.1 10.0 0 ------- null}
h -t 0.551322666666667 -s 11 -d 1 -p ack -e 40 -c 4 -i 13 -a 4 -x {11.1 10.0 -1 ------- null}
r -t 0.551642666666667 -s 1 -d 15 -p tcp -e 40 -c 5 -i 5 -a 5 -x {14.0 15.0 0 ------- null}
+ -t 0.551642666666667 -s 15 -d 1 -p ack -e 40 -c 5 -i 14 -a 5 -x {15.0 14.0 0 ------- null}
- -t 0.551642666666667 -s 15 -d 1 -p ack -e 40 -c 5 -i 14 -a 5 -x {15.0 14.0 0 ------- null}
h -t 0.551642666666667 -s 15 -d 1 -p ack -e 40 -c 5 -i 14 -a 5 -x {15.0 14.0 -1 ------- null}
r -t 0.551962666666667 -s 1 -d 7 -p tcp -e 40 -c 8 -i 8 -a 8 -x {8.0 7.0 0 ------- null}
+ -t 0.551962666666667 -s 7 -d 1 -p ack -e 40 -c 8 -i 15 -a 8 -x {7.0 8.0 0 ------- null}
- -t 0.551962666666667 -s 7 -d 1 -p ack -e 40 -c 8 -i 15 -a 8 -x {7.0 8.0 0 ------- null}
h -t 0.551962666666667 -s 7 -d 1 -p ack -e 40 -c 8 -i 15 -a 8 -x {7.0 8.0 -1 ------- null}
r -t 0.552282666666667 -s 1 -d 19 -p tcp -e 40 -c 2 -i 2 -a 2 -x {12.1 19.0 0 ------- null}
+ -t 0.552282666666667 -s 19 -d 1 -p ack -e 40 -c 2 -i 16 -a 2 -x {19.0 12.1 0 ------- null}
- -t 0.552282666666667 -s 19 -d 1 -p ack -e 40 -c 2 -i 16 -a 2 -x {19.0 12.1 0 ------- null}
h -t 0.552282666666667 -s 19 -d 1 -p ack -e 40 -c 2 -i 16 -a 2 -x {19.0 12.1 -1 ------- null}
r -t 0.552602666666667 -s 1 -d 15 -p tcp -e 40 -c 9 -i 9 -a 9 -x {2.1 15.1 0 ------- null}
+ -t 0.552602666666667 -s 15 -d 1 -p ack -e 40 -c 9 -i 17 -a 9 -x {15.1 2.1 0 ------- null}
- -t 0.552602666666667 -s 15 -d 1 -p ack -e 40 -c 9 -i 17 -a 9 -x {15.1 2.1 0 ------- null}
h -t 0.552602666666667 -s 15 -d 1 -p ack -e 40 -c 9 -i 17 -a 9 -x {15.1 2.1 -1 ------- null}
r -t 0.552922666666667 -s 1 -d 19 -p tcp -e 40 -c 7 -i 7 -a 7 -x {10.1 19.1 0 ------- null}
+ -t 0.552922666666667 -s 19 -d 1 -p ack -e 40 -c 7 -i 18 -a 7 -x {19.1 10.1 0 ------- null}
- -t 0.552922666666667 -s 19 -d 1 -p ack -e 40 -c 7 -i 18 -a 7 -x {19.1 10.1 0 ------- null}
h -t 0.552922666666667 -s 19 -d 1 -p ack -e 40 -c 7 -i 18 -a 7 -x {19.1 10.1 -1 ------- null}
r -t 0.553242666666667 -s 1 -d 13 -p tcp -e 40 -c 6 -i 6 -a 6 -x {14.1 13.1 0 ------- null}
+ -t 0.553242666666667 -s 13 -d 1 -p ack -e 40 -c 6 -i 19 -a 6 -x {13.1 14.1 0 ------- null}
- -t 0.553242666666667 -s 13 -d 1 -p ack -e 40 -c 6 -i 19 -a 6 -x {13.1 14.1 0 ------- null}
h -t 0.553242666666667 -s 13 -d 1 -p ack -e 40 -c 6 -i 19 -a 6 -x {13.1 14.1 -1 ------- null}
r -t 0.560384 -s 13 -d 1 -p ack -e 40 -c 0 -i 10 -a 0 -x {13.0 12.0 0 ------- null}
+ -t 0.560384 -s 1 -d 0 -p ack -e 40 -c 0 -i 10 -a 0 -x {13.0 12.0 0 ------- null}
- -t 0.560384 -s 1 -d 0 -p ack -e 40 -c 0 -i 10 -a 0 -x {13.0 12.0 0 ------- null}
h -t 0.560384 -s 1 -d 0 -p ack -e 40 -c 0 -i 10 -a 0 -x {13.0 12.0 -1 ------- null}
r -t 0.560704 -s 11 -d 1 -p ack -e 40 -c 1 -i 11 -a 1 -x {11.0 2.0 0 ------- null}
+ -t 0.560704 -s 1 -d 0 -p ack -e 40 -c 1 -i 11 -a 1 -x {11.0 2.0 0 ------- null}
- -t 0.560704 -s 1 -d 0 -p ack -e 40 -c 1 -i 11 -a 1 -x {11.0 2.0 0 ------- null}
h -t 0.560704 -s 1 -d 0 -p ack -e 40 -c 1 -i 11 -a 1 -x {11.0 2.0 -1 ------- null}
r -t 0.561024 -s 3 -d 1 -p ack -e 40 -c 3 -i 12 -a 3 -x {3.0 18.0 0 ------- null}
+ -t 0.561024 -s 1 -d 0 -p ack -e 40 -c 3 -i 12 -a 3 -x {3.0 18.0 0 ------- null}
- -t 0.561024 -s 1 -d 0 -p ack -e 40 -c 3 -i 12 -a 3 -x {3.0 18.0 0 ------- null}
h -t 0.561024 -s 1 -d 0 -p ack -e 40 -c 3 -i 12 -a 3 -x {3.0 18.0 -1 ------- null}
r -t 0.561344 -s 11 -d 1 -p ack -e 40 -c 4 -i 13 -a 4 -x {11.1 10.0 0 ------- null}
+ -t 0.561344 -s 1 -d 0 -p ack -e 40 -c 4 -i 13 -a 4 -x {11.1 10.0 0 ------- null}
- -t 0.561344 -s 1 -d 0 -p ack -e 40 -c 4 -i 13 -a 4 -x {11.1 10.0 0 ------- null}
h -t 0.561344 -s 1 -d 0 -p ack -e 40 -c 4 -i 13 -a 4 -x {11.1 10.0 -1 ------- null}
r -t 0.561664 -s 15 -d 1 -p ack -e 40 -c 5 -i 14 -a 5 -x {15.0 14.0 0 ------- null}
+ -t 0.561664 -s 1 -d 0 -p ack -e 40 -c 5 -i 14 -a 5 -x {15.0 14.0 0 ------- null}
- -t 0.561664 -s 1 -d 0 -p ack -e 40 -c 5 -i 14 -a 5 -x {15.0 14.0 0 ------- null}
h -t 0.561664 -s 1 -d 0 -p ack -e 40 -c 5 -i 14 -a 5 -x {15.0 14.0 -1 ------- null}
r -t 0.561984 -s 7 -d 1 -p ack -e 40 -c 8 -i 15 -a 8 -x {7.0 8.0 0 ------- null}
+ -t 0.561984 -s 1 -d 0 -p ack -e 40 -c 8 -i 15 -a 8 -x {7.0 8.0 0 ------- null}
- -t 0.561984 -s 1 -d 0 -p ack -e 40 -c 8 -i 15 -a 8 -x {7.0 8.0 0 ------- null}
h -t 0.561984 -s 1 -d 0 -p ack -e 40 -c 8 -i 15 -a 8 -x {7.0 8.0 -1 ------- null}
r -t 0.562304 -s 19 -d 1 -p ack -e 40 -c 2 -i 16 -a 2 -x {19.0 12.1 0 ------- null}
+ -t 0.562304 -s 1 -d 0 -p ack -e 40 -c 2 -i 16 -a 2 -x {19.0 12.1 0 ------- null}
- -t 0.562304 -s 1 -d 0 -p ack -e 40 -c 2 -i 16 -a 2 -x {19.0 12.1 0 ------- null}
h -t 0.562304 -s 1 -d 0 -p ack -e 40 -c 2 -i 16 -a 2 -x {19.0 12.1 -1 ------- null}
r -t 0.562624 -s 15 -d 1 -p ack -e 40 -c 9 -i 17 -a 9 -x {15.1 2.1 0 ------- null}
+ -t 0.562624 -s 1 -d 0 -p ack -e 40 -c 9 -i 17 -a 9 -x {15.1 2.1 0 ------- null}
- -t 0.562624 -s 1 -d 0 -p ack -e 40 -c 9 -i 17 -a 9 -x {15.1 2.1 0 ------- null}
h -t 0.562624 -s 1 -d 0 -p ack -e 40 -c 9 -i 17 -a 9 -x {15.1 2.1 -1 ------- null}
r -t 0.562944 -s 19 -d 1 -p ack -e 40 -c 7 -i 18 -a 7 -x {19.1 10.1 0 ------- null}
+ -t 0.562944 -s 1 -d 0 -p ack -e 40 -c 7 -i 18 -a 7 -x {19.1 10.1 0 ------- null}
- -t 0.562944 -s 1 -d 0 -p ack -e 40 -c 7 -i 18 -a 7 -x {19.1 10.1 0 ------- null}
h -t 0.562944 -s 1 -d 0 -p ack -e 40 -c 7 -i 18 -a 7 -x {19.1 10.1 -1 ------- null}
r -t 0.563264 -s 13 -d 1 -p ack -e 40 -c 6 -i 19 -a 6 -x {13.1 14.1 0 ------- null}
+ -t 0.563264 -s 1 -d 0 -p ack -e 40 -c 6 -i 19 -a 6 -x {13.1 14.1 0 ------- null}
- -t 0.563264 -s 1 -d 0 -p ack -e 40 -c 6 -i 19 -a 6 -x {13.1 14.1 0 ------- null}
h -t 0.563264 -s 1 -d 0 -p ack -e 40 -c 6 -i 19 -a 6 -x {13.1 14.1 -1 ------- null}
r -t 0.590704 -s 1 -d 0 -p ack -e 40 -c 0 -i 10 -a 0 -x {13.0 12.0 0 ------- null}
+ -t 0.590704 -s 0 -d 12 -p ack -e 40 -c 0 -i 10 -a 0 -x {13.0 12.0 0 ------- null}
- -t 0.590704 -s 0 -d 12 -p ack -e 40 -c 0 -i 10 -a 0 -x {13.0 12.0 0 ------- null}
h -t 0.590704 -s 0 -d 12 -p ack -e 40 -c 0 -i 10 -a 0 -x {13.0 12.0 -1 ------- null}
r -t 0.591024 -s 1 -d 0 -p ack -e 40 -c 1 -i 11 -a 1 -x {11.0 2.0 0 ------- null}
+ -t 0.591024 -s 0 -d 2 -p ack -e 40 -c 1 -i 11 -a 1 -x {11.0 2.0 0 ------- null}
- -t 0.591024 -s 0 -d 2 -p ack -e 40 -c 1 -i 11 -a 1 -x {11.0 2.0 0 ------- null}
h -t 0.591024 -s 0 -d 2 -p ack -e 40 -c 1 -i 11 -a 1 -x {11.0 2.0 -1 ------- null}
r -t 0.591344 -s 1 -d 0 -p ack -e 40 -c 3 -i 12 -a 3 -x {3.0 18.0 0 ------- null}
+ -t 0.591344 -s 0 -d 18 -p ack -e 40 -c 3 -i 12 -a 3 -x {3.0 18.0 0 ------- null}
- -t 0.591344 -s 0 -d 18 -p ack -e 40 -c 3 -i 12 -a 3 -x {3.0 18.0 0 ------- null}
h -t 0.591344 -s 0 -d 18 -p ack -e 40 -c 3 -i 12 -a 3 -x {3.0 18.0 -1 ------- null}
r -t 0.591664 -s 1 -d 0 -p ack -e 40 -c 4 -i 13 -a 4 -x {11.1 10.0 0 ------- null}
+ -t 0.591664 -s 0 -d 10 -p ack -e 40 -c 4 -i 13 -a 4 -x {11.1 10.0 0 ------- null}
- -t 0.591664 -s 0 -d 10 -p ack -e 40 -c 4 -i 13 -a 4 -x {11.1 10.0 0 ------- null}
h -t 0.591664 -s 0 -d 10 -p ack -e 40 -c 4 -i 13 -a 4 -x {11.1 10.0 -1 ------- null}
r -t 0.591984 -s 1 -d 0 -p ack -e 40 -c 5 -i 14 -a 5 -x {15.0 14.0 0 ------- null}
+ -t 0.591984 -s 0 -d 14 -p ack -e 40 -c 5 -i 14 -a 5 -x {15.0 14.0 0 ------- null}
- -t 0.591984 -s 0 -d 14 -p ack -e 40 -c 5 -i 14 -a 5 -x {15.0 14.0 0 ------- null}
h -t 0.591984 -s 0 -d 14 -p ack -e 40 -c 5 -i 14 -a 5 -x {15.0 14.0 -1 ------- null}
r -t 0.592304 -s 1 -d 0 -p ack -e 40 -c 8 -i 15 -a 8 -x {7.0 8.0 0 ------- null}
+ -t 0.592304 -s 0 -d 8 -p ack -e 40 -c 8 -i 15 -a 8 -x {7.0 8.0 0 ------- null}
- -t 0.592304 -s 0 -d 8 -p ack -e 40 -c 8 -i 15 -a 8 -x {7.0 8.0 0 ------- null}
h -t 0.592304 -s 0 -d 8 -p ack -e 40 -c 8 -i 15 -a 8 -x {7.0 8.0 -1 ------- null}
r -t 0.592624 -s 1 -d 0 -p ack -e 40 -c 2 -i 16 -a 2 -x {19.0 12.1 0 ------- null}
+ -t 0.592624 -s 0 -d 12 -p ack -e 40 -c 2 -i 16 -a 2 -x {19.0 12.1 0 ------- null}
- -t 0.592624 -s 0 -d 12 -p ack -e 40 -c 2 -i 16 -a 2 -x {19.0 12.1 0 ------- null}
h -t 0.592624 -s 0 -d 12 -p ack -e 40 -c 2 -i 16 -a 2 -x {19.0 12.1 -1 ------- null}
r -t 0.592944 -s 1 -d 0 -p ack -e 40 -c 9 -i 17 -a 9 -x {15.1 2.1 0 ------- null}
+ -t 0.592944 -s 0 -d 2 -p ack -e 40 -c 9 -i 17 -a 9 -x {15.1 2.1 0 ------- null}
- -t 0.592944 -s 0 -d 2 -p ack -e 40 -c 9 -i 17 -a 9 -x {15.1 2.1 0 ------- null}
h -t 0.592944 -s 0 -d 2 -p ack -e 40 -c 9 -i 17 -a 9 -x {15.1 2.1 -1 ------- null}
r -t 0.593264 -s 1 -d 0 -p ack -e 40 -c 7 -i 18 -a 7 -x {19.1 10.1 0 ------- null}
+ -t 0.593264 -s 0 -d 10 -p ack -e 40 -c 7 -i 18 -a 7 -x {19.1 10.1 0 ------- null}
- -t 0.593264 -s 0 -d 10 -p ack -e 40 -c 7 -i 18 -a 7 -x {19.1 10.1 0 ------- null}
h -t 0.593264 -s 0 -d 10 -p ack -e 40 -c 7 -i 18 -a 7 -x {19.1 10.1 -1 ------- null}
r -t 0.593584 -s 1 -d 0 -p ack -e 40 -c 6 -i 19 -a 6 -x {13.1 14.1 0 ------- null}
+ -t 0.593584 -s 0 -d 14 -p ack -e 40 -c 6 -i 19 -a 6 -x {13.1 14.1 0 ------- null}
- -t 0.593584 -s 0 -d 14 -p ack -e 40 -c 6 -i 19 -a 6 -x {13.1 14.1 0 ------- null}
h -t 0.593584 -s 0 -d 14 -p ack -e 40 -c 6 -i 19 -a 6 -x {13.1 14.1 -1 ------- null}
r -t 0.600725333333333 -s 0 -d 12 -p ack -e 40 -c 0 -i 10 -a 0 -x {13.0 12.0 0 ------- null}
+ -t 0.600725333333333 -s 12 -d 0 -p tcp -e 1040 -c 0 -i 20 -a 0 -x {12.0 13.0 1 ------- null}
- -t 0.600725333333333 -s 12 -d 0 -p tcp -e 1040 -c 0 -i 20 -a 0 -x {12.0 13.0 1 ------- null}
h -t 0.600725333333333 -s 12 -d 0 -p tcp -e 1040 -c 0 -i 20 -a 0 -x {12.0 13.0 -1 ------- null}
+ -t 0.600725333333333 -s 12 -d 0 -p tcp -e 1040 -c 0 -i 21 -a 0 -x {12.0 13.0 2 ------- null}
r -t 0.601045333333333 -s 0 -d 2 -p ack -e 40 -c 1 -i 11 -a 1 -x {11.0 2.0 0 ------- null}
+ -t 0.601045333333333 -s 2 -d 0 -p tcp -e 1040 -c 1 -i 22 -a 1 -x {2.0 11.0 1 ------- null}
- -t 0.601045333333333 -s 2 -d 0 -p tcp -e 1040 -c 1 -i 22 -a 1 -x {2.0 11.0 1 ------- null}
h -t 0.601045333333333 -s 2 -d 0 -p tcp -e 1040 -c 1 -i 22 -a 1 -x {2.0 11.0 -1 ------- null}
+ -t 0.601045333333333 -s 2 -d 0 -p tcp -e 1040 -c 1 -i 23 -a 1 -x {2.0 11.0 2 ------- null}
- -t 0.60128 -s 12 -d 0 -p tcp -e 1040 -c 0 -i 21 -a 0 -x {12.0 13.0 2 ------- null}
h -t 0.60128 -s 12 -d 0 -p tcp -e 1040 -c 0 -i 21 -a 0 -x {12.0 13.0 -1 ------- null}
r -t 0.601365333333333 -s 0 -d 18 -p ack -e 40 -c 3 -i 12 -a 3 -x {3.0 18.0 0 ------- null}
+ -t 0.601365333333333 -s 18 -d 0 -p tcp -e 1040 -c 3 -i 24 -a 3 -x {18.0 3.0 1 ------- null}
- -t 0.601365333333333 -s 18 -d 0 -p tcp -e 1040 -c 3 -i 24 -a 3 -x {18.0 3.0 1 ------- null}
h -t 0.601365333333333 -s 18 -d 0 -p tcp -e 1040 -c 3 -i 24 -a 3 -x {18.0 3.0 -1 ------- null}
+ -t 0.601365333333333 -s 18 -d 0 -p tcp -e 1040 -c 3 -i 25 -a 3 -x {18.0 3.0 2 ------- null}
- -t 0.6016 -s 2 -d 0 -p tcp -e 1040 -c 1 -i 23 -a 1 -x {2.0 11.0 2 ------- null}
h -t 0.6016 -s 2 -d 0 -p tcp -e 1040 -c 1 -i 23 -a 1 -x {2.0 11.0 -1 ------- null}
r -t 0.601685333333333 -s 0 -d 10 -p ack -e 40 -c 4 -i 13 -a 4 -x {11.1 10.0 0 ------- null}
+ -t 0.601685333333333 -s 10 -d 0 -p tcp -e 1040 -c 4 -i 26 -a 4 -x {10.0 11.1 1 ------- null}
- -t 0.601685333333333 -s 10 -d 0 -p tcp -e 1040 -c 4 -i 26 -a 4 -x {10.0 11.1 1 ------- null}
h -t 0.601685333333333 -s 10 -d 0 -p tcp -e 1040 -c 4 -i 26 -a 4 -x {10.0 11.1 -1 ------- null}
+ -t 0.601685333333333 -s 10 -d 0 -p tcp -e 1040 -c 4 -i 27 -a 4 -x {10.0 11.1 2 ------- null}
- -t 0.60192 -s 18 -d 0 -p tcp -e 1040 -c 3 -i 25 -a 3 -x {18.0 3.0 2 ------- null}
h -t 0.60192 -s 18 -d 0 -p tcp -e 1040 -c 3 -i 25 -a 3 -x {18.0 3.0 -1 ------- null}
r -t 0.602005333333333 -s 0 -d 14 -p ack -e 40 -c 5 -i 14 -a 5 -x {15.0 14.0 0 ------- null}
+ -t 0.602005333333333 -s 14 -d 0 -p tcp -e 1040 -c 5 -i 28 -a 5 -x {14.0 15.0 1 ------- null}
- -t 0.602005333333333 -s 14 -d 0 -p tcp -e 1040 -c 5 -i 28 -a 5 -x {14.0 15.0 1 ------- null}
h -t 0.602005333333333 -s 14 -d 0 -p tcp -e 1040 -c 5 -i 28 -a 5 -x {14.0 15.0 -1 ------- null}
+ -t 0.602005333333333 -s 14 -d 0 -p tcp -e 1040 -c 5 -i 29 -a 5 -x {14.0 15.0 2 ------- null}
- -t 0.60224 -s 10 -d 0 -p tcp -e 1040 -c 4 -i 27 -a 4 -x {10.0 11.1 2 ------- null}
h -t 0.60224 -s 10 -d 0 -p tcp -e 1040 -c 4 -i 27 -a 4 -x {10.0 11.1 -1 ------- null}
r -t 0.602325333333333 -s 0 -d 8 -p ack -e 40 -c 8 -i 15 -a 8 -x {7.0 8.0 0 ------- null}
+ -t 0.602325333333333 -s 8 -d 0 -p tcp -e 1040 -c 8 -i 30 -a 8 -x {8.0 7.0 1 ------- null}
- -t 0.602325333333333 -s 8 -d 0 -p tcp -e 1040 -c 8 -i 30 -a 8 -x {8.0 7.0 1 ------- null}
h -t 0.602325333333333 -s 8 -d 0 -p tcp -e 1040 -c 8 -i 30 -a 8 -x {8.0 7.0 -1 ------- null}
+ -t 0.602325333333333 -s 8 -d 0 -p tcp -e 1040 -c 8 -i 31 -a 8 -x {8.0 7.0 2 ------- null}
- -t 0.60256 -s 14 -d 0 -p tcp -e 1040 -c 5 -i 29 -a 5 -x {14.0 15.0 2 ------- null}
h -t 0.60256 -s 14 -d 0 -p tcp -e 1040 -c 5 -i 29 -a 5 -x {14.0 15.0 -1 ------- null}
r -t 0.602645333333333 -s 0 -d 12 -p ack -e 40 -c 2 -i 16 -a 2 -x {19.0 12.1 0 ------- null}
+ -t 0.602645333333333 -s 12 -d 0 -p tcp -e 1040 -c 2 -i 32 -a 2 -x {12.1 19.0 1 ------- null}
- -t 0.602645333333333 -s 12 -d 0 -p tcp -e 1040 -c 2 -i 32 -a 2 -x {12.1 19.0 1 ------- null}
h -t 0.602645333333333 -s 12 -d 0 -p tcp -e 1040 -c 2 -i 32 -a 2 -x {12.1 19.0 -1 ------- null}
+ -t 0.602645333333333 -s 12 -d 0 -p tcp -e 1040 -c 2 -i 33 -a 2 -x {12.1 19.0 2 ------- null}
- -t 0.60288 -s 8 -d 0 -p tcp -e 1040 -c 8 -i 31 -a 8 -x {8.0 7.0 2 ------- null}
h -t 0.60288 -s 8 -d 0 -p tcp -e 1040 -c 8 -i 31 -a 8 -x {8.0 7.0 -1 ------- null}
r -t 0.602965333333333 -s 0 -d 2 -p ack -e 40 -c 9 -i 17 -a 9 -x {15.1 2.1 0 ------- null}
+ -t 0.602965333333333 -s 2 -d 0 -p tcp -e 1040 -c 9 -i 34 -a 9 -x {2.1 15.1 1 ------- null}
- -t 0.602965333333333 -s 2 -d 0 -p tcp -e 1040 -c 9 -i 34 -a 9 -x {2.1 15.1 1 ------- null}
h -t 0.602965333333333 -s 2 -d 0 -p tcp -e 1040 -c 9 -i 34 -a 9 -x {2.1 15.1 -1 ------- null}
+ -t 0.602965333333333 -s 2 -d 0 -p tcp -e 1040 -c 9 -i 35 -a 9 -x {2.1 15.1 2 ------- null}
- -t 0.6032 -s 12 -d 0 -p tcp -e 1040 -c 2 -i 33 -a 2 -x {12.1 19.0 2 ------- null}
h -t 0.6032 -s 12 -d 0 -p tcp -e 1040 -c 2 -i 33 -a 2 -x {12.1 19.0 -1 ------- null}
r -t 0.603285333333333 -s 0 -d 10 -p ack -e 40 -c 7 -i 18 -a 7 -x {19.1 10.1 0 ------- null}
+ -t 0.603285333333333 -s 10 -d 0 -p tcp -e 1040 -c 7 -i 36 -a 7 -x {10.1 19.1 1 ------- null}
- -t 0.603285333333333 -s 10 -d 0 -p tcp -e 1040 -c 7 -i 36 -a 7 -x {10.1 19.1 1 ------- null}
h -t 0.603285333333333 -s 10 -d 0 -p tcp -e 1040 -c 7 -i 36 -a 7 -x {10.1 19.1 -1 ------- null}
+ -t 0.603285333333333 -s 10 -d 0 -p tcp -e 1040 -c 7 -i 37 -a 7 -x {10.1 19.1 2 ------- null}
- -t 0.60352 -s 2 -d 0 -p tcp -e 1040 -c 9 -i 35 -a 9 -x {2.1 15.1 2 ------- null}
h -t 0.60352 -s 2 -d 0 -p tcp -e 1040 -c 9 -i 35 -a 9 -x {2.1 15.1 -1 ------- null}
r -t 0.603605333333333 -s 0 -d 14 -p ack -e 40 -c 6 -i 19 -a 6 -x {13.1 14.1 0 ------- null}
+ -t 0.603605333333333 -s 14 -d 0 -p tcp -e 1040 -c 6 -i 38 -a 6 -x {14.1 13.1 1 ------- null}
- -t 0.603605333333333 -s 14 -d 0 -p tcp -e 1040 -c 6 -i 38 -a 6 -x {14.1 13.1 1 ------- null}
h -t 0.603605333333333 -s 14 -d 0 -p tcp -e 1040 -c 6 -i 38 -a 6 -x {14.1 13.1 -1 ------- null}
+ -t 0.603605333333333 -s 14 -d 0 -p tcp -e 1040 -c 6 -i 39 -a 6 -x {14.1 13.1 2 ------- null}
- -t 0.60384 -s 10 -d 0 -p tcp -e 1040 -c 7 -i 37 -a 7 -x {10.1 19.1 2 ------- null}
h -t 0.60384 -s 10 -d 0 -p tcp -e 1040 -c 7 -i 37 -a 7 -x {10.1 19.1 -1 ------- null}
- -t 0.60416 -s 14 -d 0 -p tcp -e 1040 -c 6 -i 39 -a 6 -x {14.1 13.1 2 ------- null}
h -t 0.60416 -s 14 -d 0 -p tcp -e 1040 -c 6 -i 39 -a 6 -x {14.1 13.1 -1 ------- null}
r -t 0.61128 -s 12 -d 0 -p tcp -e 1040 -c 0 -i 20 -a 0 -x {12.0 13.0 1 ------- null}
+ -t 0.61128 -s 0 -d 1 -p tcp -e 1040 -c 0 -i 20 -a 0 -x {12.0 13.0 1 ------- null}
- -t 0.61128 -s 0 -d 1 -p tcp -e 1040 -c 0 -i 20 -a 0 -x {12.0 13.0 1 ------- null}
h -t 0.61128 -s 0 -d 1 -p tcp -e 1040 -c 0 -i 20 -a 0 -x {12.0 13.0 -1 ------- null}
r -t 0.6116 -s 2 -d 0 -p tcp -e 1040 -c 1 -i 22 -a 1 -x {2.0 11.0 1 ------- null}
+ -t 0.6116 -s 0 -d 1 -p tcp -e 1040 -c 1 -i 22 -a 1 -x {2.0 11.0 1 ------- null}
r -t 0.611834666666667 -s 12 -d 0 -p tcp -e 1040 -c 0 -i 21 -a 0 -x {12.0 13.0 2 ------- null}
+ -t 0.611834666666667 -s 0 -d 1 -p tcp -e 1040 -c 0 -i 21 -a 0 -x {12.0 13.0 2 ------- null}
r -t 0.61192 -s 18 -d 0 -p tcp -e 1040 -c 3 -i 24 -a 3 -x {18.0 3.0 1 ------- null}
+ -t 0.61192 -s 0 -d 1 -p tcp -e 1040 -c 3 -i 24 -a 3 -x {18.0 3.0 1 ------- null}
r -t 0.612154666666667 -s 2 -d 0 -p tcp -e 1040 -c 1 -i 23 -a 1 -x {2.0 11.0 2 ------- null}
+ -t 0.612154666666667 -s 0 -d 1 -p tcp -e 1040 -c 1 -i 23 -a 1 -x {2.0 11.0 2 ------- null}
r -t 0.61224 -s 10 -d 0 -p tcp -e 1040 -c 4 -i 26 -a 4 -x {10.0 11.1 1 ------- null}
+ -t 0.61224 -s 0 -d 1 -p tcp -e 1040 -c 4 -i 26 -a 4 -x {10.0 11.1 1 ------- null}
r -t 0.612474666666667 -s 18 -d 0 -p tcp -e 1040 -c 3 -i 25 -a 3 -x {18.0 3.0 2 ------- null}