+ 0.5 12 0 tcp 40 ------- 0 12.0 13.0 0 0
- 0.5 12 0 tcp 40 ------- 0 12.0 13.0 0 0
+ 0.5 2 0 tcp 40 ------- 1 2.0 11.0 0 1
- 0.5 2 0 tcp 40 ------- 1 2.0 11.0 0 1
+ 0.5 12 0 tcp 40 ------- 2 12.1 19.0 0 2
+ 0.5 18 0 tcp 40 ------- 3 18.0 3.0 0 3
- 0.5 18 0 tcp 40 ------- 3 18.0 3.0 0 3
+ 0.5 10 0 tcp 40 ------- 4 10.0 11.1 0 4
- 0.5 10 0 tcp 40 ------- 4 10.0 11.1 0 4
+ 0.5 14 0 tcp 40 ------- 5 14.0 15.0 0 5
- 0.5 14 0 tcp 40 ------- 5 14.0 15.0 0 5
+ 0.5 14 0 tcp 40 ------- 6 14.1 13.1 0 6
+ 0.5 10 0 tcp 40 ------- 7 10.1 19.1 0 7
+ 0.5 8 0 tcp 40 ------- 8 8.0 7.0 0 8
- 0.5 8 0 tcp 40 ------- 8 8.0 7.0 0 8
+ 0.5 2 0 tcp 40 ------- 9 2.1 15.1 0 9
- 0.500021 12 0 tcp 40 ------- 2 12.1 19.0 0 2
- 0.500021 2 0 tcp 40 ------- 9 2.1 15.1 0 9
- 0.500021 10 0 tcp 40 ------- 7 10.1 19.1 0 7
- 0.500021 14 0 tcp 40 ------- 6 14.1 13.1 0 6
r 0.510021 12 0 tcp 40 ------- 0 12.0 13.0 0 0
+ 0.510021 0 1 tcp 40 ------- 0 12.0 13.0 0 0
- 0.510021 0 1 tcp 40 ------- 0 12.0 13.0 0 0
r 0.510021 2 0 tcp 40 ------- 1 2.0 11.0 0 1
+ 0.510021 0 1 tcp 40 ------- 1 2.0 11.0 0 1
r 0.510021 18 0 tcp 40 ------- 3 18.0 3.0 0 3
+ 0.510021 0 1 tcp 40 ------- 3 18.0 3.0 0 3
r 0.510021 10 0 tcp 40 ------- 4 10.0 11.1 0 4
+ 0.510021 0 1 tcp 40 ------- 4 10.0 11.1 0 4
r 0.510021 14 0 tcp 40 ------- 5 14.0 15.0 0 5
+ 0.510021 0 1 tcp 40 ------- 5 14.0 15.0 0 5
r 0.510021 8 0 tcp 40 ------- 8 8.0 7.0 0 8
+ 0.510021 0 1 tcp 40 ------- 8 8.0 7.0 0 8
r 0.510043 12 0 tcp 40 ------- 2 12.1 19.0 0 2
+ 0.510043 0 1 tcp 40 ------- 2 12.1 19.0 0 2
r 0.510043 2 0 tcp 40 ------- 9 2.1 15.1 0 9
+ 0.510043 0 1 tcp 40 ------- 9 2.1 15.1 0 9
r 0.510043 10 0 tcp 40 ------- 7 10.1 19.1 0 7
+ 0.510043 0 1 tcp 40 ------- 7 10.1 19.1 0 7
r 0.510043 14 0 tcp 40 ------- 6 14.1 13.1 0 6
+ 0.510043 0 1 tcp 40 ------- 6 14.1 13.1 0 6
- 0.510341 0 1 tcp 40 ------- 1 2.0 11.0 0 1
- 0.510661 0 1 tcp 40 ------- 3 18.0 3.0 0 3
- 0.510981 0 1 tcp 40 ------- 4 10.0 11.1 0 4
- 0.511301 0 1 tcp 40 ------- 5 14.0 15.0 0 5
- 0.511621 0 1 tcp 40 ------- 8 8.0 7.0 0 8
- 0.511941 0 1 tcp 40 ------- 2 12.1 19.0 0 2
- 0.512261 0 1 tcp 40 ------- 9 2.1 15.1 0 9
- 0.512581 0 1 tcp 40 ------- 7 10.1 19.1 0 7
- 0.512901 0 1 tcp 40 ------- 6 14.1 13.1 0 6
r 0.540341 0 1 tcp 40 ------- 0 12.0 13.0 0 0
+ 0.540341 1 13 tcp 40 ------- 0 12.0 13.0 0 0
- 0.540341 1 13 tcp 40 ------- 0 12.0 13.0 0 0
r 0.540661 0 1 tcp 40 ------- 1 2.0 11.0 0 1
+ 0.540661 1 11 tcp 40 ------- 1 2.0 11.0 0 1
- 0.540661 1 11 tcp 40 ------- 1 2.0 11.0 0 1
r 0.540981 0 1 tcp 40 ------- 3 18.0 3.0 0 3
+ 0.540981 1 3 tcp 40 ------- 3 18.0 3.0 0 3
- 0.540981 1 3 tcp 40 ------- 3 18.0 3.0 0 3
r 0.541301 0 1 tcp 40 ------- 4 10.0 11.1 0 4
+ 0.541301 1 11 tcp 40 ------- 4 10.0 11.1 0 4
- 0.541301 1 11 tcp 40 ------- 4 10.0 11.1 0 4
r 0.541621 0 1 tcp 40 ------- 5 14.0 15.0 0 5
+ 0.541621 1 15 tcp 40 ------- 5 14.0 15.0 0 5
- 0.541621 1 15 tcp 40 ------- 5 14.0 15.0 0 5
r 0.541941 0 1 tcp 40 ------- 8 8.0 7.0 0 8
+ 0.541941 1 7 tcp 40 ------- 8 8.0 7.0 0 8
- 0.541941 1 7 tcp 40 ------- 8 8.0 7.0 0 8
r 0.542261 0 1 tcp 40 ------- 2 12.1 19.0 0 2
+ 0.542261 1 19 tcp 40 ------- 2 12.1 19.0 0 2
- 0.542261 1 19 tcp 40 ------- 2 12.1 19.0 0 2
r 0.542581 0 1 tcp 40 ------- 9 2.1 15.1 0 9
+ 0.542581 1 15 tcp 40 ------- 9 2.1 15.1 0 9
- 0.542581 1 15 tcp 40 ------- 9 2.1 15.1 0 9
r 0.542901 0 1 tcp 40 ------- 7 10.1 19.1 0 7
+ 0.542901 1 19 tcp 40 ------- 7 10.1 19.1 0 7
- 0.542901 1 19 tcp 40 ------- 7 10.1 19.1 0 7
r 0.543221 0 1 tcp 40 ------- 6 14.1 13.1 0 6
+ 0.543221 1 13 tcp 40 ------- 6 14.1 13.1 0 6
- 0.543221 1 13 tcp 40 ------- 6 14.1 13.1 0 6
r 0.550363 1 13 tcp 40 ------- 0 12.0 13.0 0 0
+ 0.550363 13 1 ack 40 ------- 0 13.0 12.0 0 10
- 0.550363 13 1 ack 40 ------- 0 13.0 12.0 0 10
r 0.550683 1 11 tcp 40 ------- 1 2.0 11.0 0 1
+ 0.550683 11 1 ack 40 ------- 1 11.0 2.0 0 11
- 0.550683 11 1 ack 40 ------- 1 11.0 2.0 0 11
r 0.551003 1 3 tcp 40 ------- 3 18.0 3.0 0 3
+ 0.551003 3 1 ack 40 ------- 3 3.0 18.0 0 12
- 0.551003 3 1 ack 40 ------- 3 3.0 18.0 0 12
r 0.551323 1 11 tcp 40 ------- 4 10.0 11.1 0 4
+ 0.551323 11 1 ack 40 ------- 4 11.1 10.0 0 13
- 0.551323 11 1 ack 40 ------- 4 11.1 10.0 0 13
r 0.551643 1 15 tcp 40 ------- 5 14.0 15.0 0 5
+ 0.551643 15 1 ack 40 ------- 5 15.0 14.0 0 14
- 0.551643 15 1 ack 40 ------- 5 15.0 14.0 0 14
r 0.551963 1 7 tcp 40 ------- 8 8.0 7.0 0 8
+ 0.551963 7 1 ack 40 ------- 8 7.0 8.0 0 15
- 0.551963 7 1 ack 40 ------- 8 7.0 8.0 0 15
r 0.552283 1 19 tcp 40 ------- 2 12.1 19.0 0 2
+ 0.552283 19 1 ack 40 ------- 2 19.0 12.1 0 16
- 0.552283 19 1 ack 40 ------- 2 19.0 12.1 0 16
r 0.552603 1 15 tcp 40 ------- 9 2.1 15.1 0 9
+ 0.552603 15 1 ack 40 ------- 9 15.1 2.1 0 17
- 0.552603 15 1 ack 40 ------- 9 15.1 2.1 0 17
r 0.552923 1 19 tcp 40 ------- 7 10.1 19.1 0 7
+ 0.552923 19 1 ack 40 ------- 7 19.1 10.1 0 18
- 0.552923 19 1 ack 40 ------- 7 19.1 10.1 0 18
r 0.553243 1 13 tcp 40 ------- 6 14.1 13.1 0 6
+ 0.553243 13 1 ack 40 ------- 6 13.1 14.1 0 19
- 0.553243 13 1 ack 40 ------- 6 13.1 14.1 0 19
r 0.560384 13 1 ack 40 ------- 0 13.0 12.0 0 10
+ 0.560384 1 0 ack 40 ------- 0 13.0 12.0 0 10
- 0.560384 1 0 ack 40 ------- 0 13.0 12.0 0 10
r 0.560704 11 1 ack 40 ------- 1 11.0 2.0 0 11
+ 0.560704 1 0 ack 40 ------- 1 11.0 2.0 0 11
- 0.560704 1 0 ack 40 ------- 1 11.0 2.0 0 11
r 0.561024 3 1 ack 40 ------- 3 3.0 18.0 0 12
+ 0.561024 1 0 ack 40 ------- 3 3.0 18.0 0 12
- 0.561024 1 0 ack 40 ------- 3 3.0 18.0 0 12
r 0.561344 11 1 ack 40 ------- 4 11.1 10.0 0 13
+ 0.561344 1 0 ack 40 ------- 4 11.1 10.0 0 13
- 0.561344 1 0 ack 40 ------- 4 11.1 10.0 0 13
r 0.561664 15 1 ack 40 ------- 5 15.0 14.0 0 14
+ 0.561664 1 0 ack 40 ------- 5 15.0 14.0 0 14
- 0.561664 1 0 ack 40 ------- 5 15.0 14.0 0 14
r 0.561984 7 1 ack 40 ------- 8 7.0 8.0 0 15
+ 0.561984 1 0 ack 40 ------- 8 7.0 8.0 0 15
- 0.561984 1 0 ack 40 ------- 8 7.0 8.0 0 15
r 0.562304 19 1 ack 40 ------- 2 19.0 12.1 0 16
+ 0.562304 1 0 ack 40 ------- 2 19.0 12.1 0 16
- 0.562304 1 0 ack 40 ------- 2 19.0 12.1 0 16
r 0.562624 15 1 ack 40 ------- 9 15.1 2.1 0 17
+ 0.562624 1 0 ack 40 ------- 9 15.1 2.1 0 17
- 0.562624 1 0 ack 40 ------- 9 15.1 2.1 0 17
r 0.562944 19 1 ack 40 ------- 7 19.1 10.1 0 18
+ 0.562944 1 0 ack 40 ------- 7 19.1 10.1 0 18
- 0.562944 1 0 ack 40 ------- 7 19.1 10.1 0 18
r 0.563264 13 1 ack 40 ------- 6 13.1 14.1 0 19
+ 0.563264 1 0 ack 40 ------- 6 13.1 14.1 0 19
- 0.563264 1 0 ack 40 ------- 6 13.1 14.1 0 19
r 0.590704 1 0 ack 40 ------- 0 13.0 12.0 0 10
+ 0.590704 0 12 ack 40 ------- 0 13.0 12.0 0 10
- 0.590704 0 12 ack 40 ------- 0 13.0 12.0 0 10
r 0.591024 1 0 ack 40 ------- 1 11.0 2.0 0 11
+ 0.591024 0 2 ack 40 ------- 1 11.0 2.0 0 11
- 0.591024 0 2 ack 40 ------- 1 11.0 2.0 0 11
r 0.591344 1 0 ack 40 ------- 3 3.0 18.0 0 12
+ 0.591344 0 18 ack 40 ------- 3 3.0 18.0 0 12
- 0.591344 0 18 ack 40 ------- 3 3.0 18.0 0 12
r 0.591664 1 0 ack 40 ------- 4 11.1 10.0 0 13
+ 0.591664 0 10 ack 40 ------- 4 11.1 10.0 0 13
- 0.591664 0 10 ack 40 ------- 4 11.1 10.0 0 13
r 0.591984 1 0 ack 40 ------- 5 15.0 14.0 0 14
+ 0.591984 0 14 ack 40 ------- 5 15.0 14.0 0 14
- 0.591984 0 14 ack 40 ------- 5 15.0 14.0 0 14
r 0.592304 1 0 ack 40 ------- 8 7.0 8.0 0 15
+ 0.592304 0 8 ack 40 ------- 8 7.0 8.0 0 15
- 0.592304 0 8 ack 40 ------- 8 7.0 8.0 0 15
r 0.592624 1 0 ack 40 ------- 2 19.0 12.1 0 16
+ 0.592624 0 12 ack 40 ------- 2 19.0 12.1 0 16
- 0.592624 0 12 ack 40 ------- 2 19.0 12.1 0 16
r 0.592944 1 0 ack 40 ------- 9 15.1 2.1 0 17
+ 0.592944 0 2 ack 40 ------- 9 15.1 2.1 0 17
- 0.592944 0 2 ack 40 ------- 9 15.1 2.1 0 17
r 0.593264 1 0 ack 40 ------- 7 19.1 10.1 0 18
+ 0.593264 0 10 ack 40 ------- 7 19.1 10.1 0 18
- 0.593264 0 10 ack 40 ------- 7 19.1 10.1 0 18
r 0.593584 1 0 ack 40 ------- 6 13.1 14.1 0 19
+ 0.593584 0 14 ack 40 ------- 6 13.1 14.1 0 19
- 0.593584 0 14 ack 40 ------- 6 13.1 14.1 0 19
r 0.600725 0 12 ack 40 ------- 0 13.0 12.0 0 10
+ 0.600725 12 0 tcp 1040 ------- 0 12.0 13.0 1 20
- 0.600725 12 0 tcp 1040 ------- 0 12.0 13.0 1 20
+ 0.600725 12 0 tcp 1040 ------- 0 12.0 13.0 2 21
r 0.601045 0 2 ack 40 ------- 1 11.0 2.0 0 11
+ 0.601045 2 0 tcp 1040 ------- 1 2.0 11.0 1 22
- 0.601045 2 0 tcp 1040 ------- 1 2.0 11.0 1 22
+ 0.601045 2 0 tcp 1040 ------- 1 2.0 11.0 2 23
- 0.60128 12 0 tcp 1040 ------- 0 12.0 13.0 2 21
r 0.601365 0 18 ack 40 ------- 3 3.0 18.0 0 12
+ 0.601365 18 0 tcp 1040 ------- 3 18.0 3.0 1 24
- 0.601365 18 0 tcp 1040 ------- 3 18.0 3.0 1 24
+ 0.601365 18 0 tcp 1040 ------- 3 18.0 3.0 2 25
- 0.6016 2 0 tcp 1040 ------- 1 2.0 11.0 2 23
r 0.601685 0 10 ack 40 ------- 4 11.1 10.0 0 13
+ 0.601685 10 0 tcp 1040 ------- 4 10.0 11.1 1 26
- 0.601685 10 0 tcp 1040 ------- 4 10.0 11.1 1 26
+ 0.601685 10 0 tcp 1040 ------- 4 10.0 11.1 2 27
- 0.60192 18 0 tcp 1040 ------- 3 18.0 3.0 2 25
r 0.602005 0 14 ack 40 ------- 5 15.0 14.0 0 14
+ 0.602005 14 0 tcp 1040 ------- 5 14.0 15.0 1 28
- 0.602005 14 0 tcp 1040 ------- 5 14.0 15.0 1 28
+ 0.602005 14 0 tcp 1040 ------- 5 14.0 15.0 2 29
- 0.60224 10 0 tcp 1040 ------- 4 10.0 11.1 2 27
r 0.602325 0 8 ack 40 ------- 8 7.0 8.0 0 15
+ 0.602325 8 0 tcp 1040 ------- 8 8.0 7.0 1 30
- 0.602325 8 0 tcp 1040 ------- 8 8.0 7.0 1 30
+ 0.602325 8 0 tcp 1040 ------- 8 8.0 7.0 2 31
- 0.60256 14 0 tcp 1040 ------- 5 14.0 15.0 2 29
r 0.602645 0 12 ack 40 ------- 2 19.0 12.1 0 16
+ 0.602645 12 0 tcp 1040 ------- 2 12.1 19.0 1 32
- 0.602645 12 0 tcp 1040 ------- 2 12.1 19.0 1 32
+ 0.602645 12 0 tcp 1040 ------- 2 12.1 19.0 2 33
- 0.60288 8 0 tcp 1040 ------- 8 8.0 7.0 2 31
r 0.602965 0 2 ack 40 ------- 9 15.1 2.1 0 17
+ 0.602965 2 0 tcp 1040 ------- 9 2.1 15.1 1 34
- 0.602965 2 0 tcp 1040 ------- 9 2.1 15.1 1 34
+ 0.602965 2 0 tcp 1040 ------- 9 2.1 15.1 2 35
- 0.6032 12 0 tcp 1040 ------- 2 12.1 19.0 2 33
r 0.603285 0 10 ack 40 ------- 7 19.1 10.1 0 18
+ 0.603285 10 0 tcp 1040 ------- 7 10.1 19.1 1 36
- 0.603285 10 0 tcp 1040 ------- 7 10.1 19.1 1 36
+ 0.603285 10 0 tcp 1040 ------- 7 10.1 19.1 2 37
- 0.60352 2 0 tcp 1040 ------- 9 2.1 15.1 2 35
r 0.603605 0 14 ack 40 ------- 6 13.1 14.1 0 19
+ 0.603605 14 0 tcp 1040 ------- 6 14.1 13.1 1 38
- 0.603605 14 0 tcp 1040 ------- 6 14.1 13.1 1 38
+ 0.603605 14 0 tcp 1040 ------- 6 14.1 13.1 2 39
- 0.60384 10 0 tcp 1040 ------- 7 10.1 19.1 2 37
- 0.60416 14 0 tcp 1040 ------- 6 14.1 13.1 2 39
r 0.61128 12 0 tcp 1040 ------- 0 12.0 13.0 1 20
+ 0.61128 0 1 tcp 1040 ------- 0 12.0 13.0 1 20
- 0.61128 0 1 tcp 1040 ------- 0 12.0 13.0 1 20
r 0.6116 2 0 tcp 1040 ------- 1 2.0 11.0 1 22
+ 0.6116 0 1 tcp 1040 ------- 1 2.0 11.0 1 22
r 0.611835 12 0 tcp 1040 ------- 0 12.0 13.0 2 21
+ 0.611835 0 1 tcp 1040 ------- 0 12.0 13.0 2 21
r 0.61192 18 0 tcp 1040 ------- 3 18.0 3.0 1 24
+ 0.61192 0 1 tcp 1040 ------- 3 18.0 3.0 1 24
r 0.612155 2 0 tcp 1040 ------- 1 2.0 11.0 2 23
+ 0.612155 0 1 tcp 1040 ------- 1 2.0 11.0 2 23
r 0.61224 10 0 tcp 1040 ------- 4 10.0 11.1 1 26
+ 0.61224 0 1 tcp 1040 ------- 4 10.0 11.1 1 26
r 0.612475 18 0 tcp 1040 ------- 3 18.0 3.0 2 25
+ 0.612475 0 1 tcp 1040 ------- 3 18.0 3.0 2 25
r 0.61256 14 0 tcp 1040 ------- 5 14.0 15.0 1 28
+ 0.61256 0 1 tcp 1040 ------- 5 14.0 15.0 1 28
r 0.612795 10 0 tcp 1040 ------- 4 10.0 11.1 2 27
+ 0.612795 0 1 tcp 1040 ------- 4 10.0 11.1 2 27
r 0.61288 8 0 tcp 1040 ------- 8 8.0 7.0 1 30
+ 0.61288 0 1 tcp 1040 ------- 8 8.0 7.0 1 30
r 0.613115 14 0 tcp 1040 ------- 5 14.0 15.0 2 29
+ 0.613115 0 1 tcp 1040 ------- 5 14.0 15.0 2 29
r 0.6132 12 0 tcp 1040 ------- 2 12.1 19.0 1 32
+ 0.6132 0 1 tcp 1040 ------- 2 12.1 19.0 1 32
r 0.613435 8 0 tcp 1040 ------- 8 8.0 7.0 2 31
+ 0.613435 0 1 tcp 1040 ------- 8 8.0 7.0 2 31
r 0.61352 2 0 tcp 1040 ------- 9 2.1 15.1 1 34
+ 0.61352 0 1 tcp 1040 ------- 9 2.1 15.1 1 34
r 0.613755 12 0 tcp 1040 ------- 2 12.1 19.0 2 33
+ 0.613755 0 1 tcp 1040 ------- 2 12.1 19.0 2 33
r 0.61384 10 0 tcp 1040 ------- 7 10.1 19.1 1 36
+ 0.61384 0 1 tcp 1040 ------- 7 10.1 19.1 1 36
r 0.614075 2 0 tcp 1040 ------- 9 2.1 15.1 2 35
+ 0.614075 0 1 tcp 1040 ------- 9 2.1 15.1 2 35
r 0.61416 14 0 tcp 1040 ------- 6 14.1 13.1 1 38
+ 0.61416 0 1 tcp 1040 ------- 6 14.1 13.1 1 38
r 0.614395 10 0 tcp 1040 ------- 7 10.1 19.1 2 37
+ 0.614395 0 1 tcp 1040 ------- 7 10.1 19.1 2 37
r 0.614715 14 0 tcp 1040 ------- 6 14.1 13.1 2 39
+ 0.614715 0 1 tcp 1040 ------- 6 14.1 13.1 2 39
- 0.6196 0 1 tcp 1040 ------- 1 2.0 11.0 1 22
- 0.62792 0 1 tcp 1040 ------- 0 12.0 13.0 2 21
- 0.63624 0 1 tcp 1040 ------- 3 18.0 3.0 1 24
- 0.64456 0 1 tcp 1040 ------- 1 2.0 11.0 2 23
r 0.6496 0 1 tcp 1040 ------- 0 12.0 13.0 1 20
+ 0.6496 1 13 tcp 1040 ------- 0 12.0 13.0 1 20
- 0.6496 1 13 tcp 1040 ------- 0 12.0 13.0 1 20
- 0.65288 0 1 tcp 1040 ------- 4 10.0 11.1 1 26
r 0.65792 0 1 tcp 1040 ------- 1 2.0 11.0 1 22
+ 0.65792 1 11 tcp 1040 ------- 1 2.0 11.0 1 22
- 0.65792 1 11 tcp 1040 ------- 1 2.0 11.0 1 22
r 0.660155 1 13 tcp 1040 ------- 0 12.0 13.0 1 20
+ 0.660155 13 1 ack 40 ------- 0 13.0 12.0 1 40
- 0.660155 13 1 ack 40 ------- 0 13.0 12.0 1 40
- 0.6612 0 1 tcp 1040 ------- 3 18.0 3.0 2 25
r 0.66624 0 1 tcp 1040 ------- 0 12.0 13.0 2 21
+ 0.66624 1 13 tcp 1040 ------- 0 12.0 13.0 2 21
- 0.66624 1 13 tcp 1040 ------- 0 12.0 13.0 2 21
r 0.668475 1 11 tcp 1040 ------- 1 2.0 11.0 1 22
+ 0.668475 11 1 ack 40 ------- 1 11.0 2.0 1 41
- 0.668475 11 1 ack 40 ------- 1 11.0 2.0 1 41
- 0.66952 0 1 tcp 1040 ------- 5 14.0 15.0 1 28
r 0.670176 13 1 ack 40 ------- 0 13.0 12.0 1 40
+ 0.670176 1 0 ack 40 ------- 0 13.0 12.0 1 40
- 0.670176 1 0 ack 40 ------- 0 13.0 12.0 1 40
r 0.67456 0 1 tcp 1040 ------- 3 18.0 3.0 1 24
+ 0.67456 1 3 tcp 1040 ------- 3 18.0 3.0 1 24
- 0.67456 1 3 tcp 1040 ------- 3 18.0 3.0 1 24
r 0.676795 1 13 tcp 1040 ------- 0 12.0 13.0 2 21
+ 0.676795 13 1 ack 40 ------- 0 13.0 12.0 2 42
- 0.676795 13 1 ack 40 ------- 0 13.0 12.0 2 42
- 0.67784 0 1 tcp 1040 ------- 4 10.0 11.1 2 27
r 0.678496 11 1 ack 40 ------- 1 11.0 2.0 1 41
+ 0.678496 1 0 ack 40 ------- 1 11.0 2.0 1 41
- 0.678496 1 0 ack 40 ------- 1 11.0 2.0 1 41
r 0.68288 0 1 tcp 1040 ------- 1 2.0 11.0 2 23
+ 0.68288 1 11 tcp 1040 ------- 1 2.0 11.0 2 23
- 0.68288 1 11 tcp 1040 ------- 1 2.0 11.0 2 23
r 0.685115 1 3 tcp 1040 ------- 3 18.0 3.0 1 24
+ 0.685115 3 1 ack 40 ------- 3 3.0 18.0 1 43
- 0.685115 3 1 ack 40 ------- 3 3.0 18.0 1 43
- 0.68616 0 1 tcp 1040 ------- 8 8.0 7.0 1 30
r 0.686816 13 1 ack 40 ------- 0 13.0 12.0 2 42
+ 0.686816 1 0 ack 40 ------- 0 13.0 12.0 2 42
- 0.686816 1 0 ack 40 ------- 0 13.0 12.0 2 42
r 0.6912 0 1 tcp 1040 ------- 4 10.0 11.1 1 26
+ 0.6912 1 11 tcp 1040 ------- 4 10.0 11.1 1 26
- 0.6912 1 11 tcp 1040 ------- 4 10.0 11.1 1 26
r 0.693435 1 11 tcp 1040 ------- 1 2.0 11.0 2 23
+ 0.693435 11 1 ack 40 ------- 1 11.0 2.0 2 44
- 0.693435 11 1 ack 40 ------- 1 11.0 2.0 2 44
- 0.69448 0 1 tcp 1040 ------- 5 14.0 15.0 2 29
r 0.695136 3 1 ack 40 ------- 3 3.0 18.0 1 43
+ 0.695136 1 0 ack 40 ------- 3 3.0 18.0 1 43
- 0.695136 1 0 ack 40 ------- 3 3.0 18.0 1 43
r 0.69952 0 1 tcp 1040 ------- 3 18.0 3.0 2 25
+ 0.69952 1 3 tcp 1040 ------- 3 18.0 3.0 2 25
- 0.69952 1 3 tcp 1040 ------- 3 18.0 3.0 2 25
r 0.700496 1 0 ack 40 ------- 0 13.0 12.0 1 40
+ 0.700496 0 12 ack 40 ------- 0 13.0 12.0 1 40
- 0.700496 0 12 ack 40 ------- 0 13.0 12.0 1 40
r 0.701755 1 11 tcp 1040 ------- 4 10.0 11.1 1 26
+ 0.701755 11 1 ack 40 ------- 4 11.1 10.0 1 45
- 0.701755 11 1 ack 40 ------- 4 11.1 10.0 1 45
- 0.7028 0 1 tcp 1040 ------- 2 12.1 19.0 1 32
r 0.703456 11 1 ack 40 ------- 1 11.0 2.0 2 44
+ 0.703456 1 0 ack 40 ------- 1 11.0 2.0 2 44
- 0.703456 1 0 ack 40 ------- 1 11.0 2.0 2 44
r 0.70784 0 1 tcp 1040 ------- 5 14.0 15.0 1 28
+ 0.70784 1 15 tcp 1040 ------- 5 14.0 15.0 1 28
- 0.70784 1 15 tcp 1040 ------- 5 14.0 15.0 1 28
r 0.708816 1 0 ack 40 ------- 1 11.0 2.0 1 41
+ 0.708816 0 2 ack 40 ------- 1 11.0 2.0 1 41
- 0.708816 0 2 ack 40 ------- 1 11.0 2.0 1 41
r 0.710075 1 3 tcp 1040 ------- 3 18.0 3.0 2 25
+ 0.710075 3 1 ack 40 ------- 3 3.0 18.0 2 46
- 0.710075 3 1 ack 40 ------- 3 3.0 18.0 2 46
r 0.710517 0 12 ack 40 ------- 0 13.0 12.0 1 40
+ 0.710517 12 0 tcp 1040 ------- 0 12.0 13.0 3 47
- 0.710517 12 0 tcp 1040 ------- 0 12.0 13.0 3 47
+ 0.710517 12 0 tcp 1040 ------- 0 12.0 13.0 4 48
- 0.711072 12 0 tcp 1040 ------- 0 12.0 13.0 4 48
- 0.71112 0 1 tcp 1040 ------- 8 8.0 7.0 2 31
r 0.711776 11 1 ack 40 ------- 4 11.1 10.0 1 45
+ 0.711776 1 0 ack 40 ------- 4 11.1 10.0 1 45
- 0.711776 1 0 ack 40 ------- 4 11.1 10.0 1 45
r 0.71616 0 1 tcp 1040 ------- 4 10.0 11.1 2 27
+ 0.71616 1 11 tcp 1040 ------- 4 10.0 11.1 2 27
- 0.71616 1 11 tcp 1040 ------- 4 10.0 11.1 2 27
r 0.717136 1 0 ack 40 ------- 0 13.0 12.0 2 42
+ 0.717136 0 12 ack 40 ------- 0 13.0 12.0 2 42
- 0.717136 0 12 ack 40 ------- 0 13.0 12.0 2 42
r 0.718395 1 15 tcp 1040 ------- 5 14.0 15.0 1 28
+ 0.718395 15 1 ack 40 ------- 5 15.0 14.0 1 49
- 0.718395 15 1 ack 40 ------- 5 15.0 14.0 1 49
r 0.718837 0 2 ack 40 ------- 1 11.0 2.0 1 41
+ 0.718837 2 0 tcp 1040 ------- 1 2.0 11.0 3 50
- 0.718837 2 0 tcp 1040 ------- 1 2.0 11.0 3 50
+ 0.718837 2 0 tcp 1040 ------- 1 2.0 11.0 4 51
- 0.719392 2 0 tcp 1040 ------- 1 2.0 11.0 4 51
- 0.71944 0 1 tcp 1040 ------- 9 2.1 15.1 1 34
r 0.720096 3 1 ack 40 ------- 3 3.0 18.0 2 46
+ 0.720096 1 0 ack 40 ------- 3 3.0 18.0 2 46
- 0.720096 1 0 ack 40 ------- 3 3.0 18.0 2 46
r 0.721072 12 0 tcp 1040 ------- 0 12.0 13.0 3 47
+ 0.721072 0 1 tcp 1040 ------- 0 12.0 13.0 3 47
r 0.721627 12 0 tcp 1040 ------- 0 12.0 13.0 4 48
+ 0.721627 0 1 tcp 1040 ------- 0 12.0 13.0 4 48
r 0.72448 0 1 tcp 1040 ------- 8 8.0 7.0 1 30
+ 0.72448 1 7 tcp 1040 ------- 8 8.0 7.0 1 30
- 0.72448 1 7 tcp 1040 ------- 8 8.0 7.0 1 30
r 0.725456 1 0 ack 40 ------- 3 3.0 18.0 1 43
+ 0.725456 0 18 ack 40 ------- 3 3.0 18.0 1 43
- 0.725456 0 18 ack 40 ------- 3 3.0 18.0 1 43
r 0.726715 1 11 tcp 1040 ------- 4 10.0 11.1 2 27
+ 0.726715 11 1 ack 40 ------- 4 11.1 10.0 2 52
- 0.726715 11 1 ack 40 ------- 4 11.1 10.0 2 52
r 0.727157 0 12 ack 40 ------- 0 13.0 12.0 2 42
+ 0.727157 12 0 tcp 1040 ------- 0 12.0 13.0 5 53
- 0.727157 12 0 tcp 1040 ------- 0 12.0 13.0 5 53
+ 0.727157 12 0 tcp 1040 ------- 0 12.0 13.0 6 54
- 0.727712 12 0 tcp 1040 ------- 0 12.0 13.0 6 54
- 0.72776 0 1 tcp 1040 ------- 2 12.1 19.0 2 33
r 0.728416 15 1 ack 40 ------- 5 15.0 14.0 1 49
+ 0.728416 1 0 ack 40 ------- 5 15.0 14.0 1 49
- 0.728416 1 0 ack 40 ------- 5 15.0 14.0 1 49
r 0.729392 2 0 tcp 1040 ------- 1 2.0 11.0 3 50
+ 0.729392 0 1 tcp 1040 ------- 1 2.0 11.0 3 50
r 0.729947 2 0 tcp 1040 ------- 1 2.0 11.0 4 51
+ 0.729947 0 1 tcp 1040 ------- 1 2.0 11.0 4 51
r 0.7328 0 1 tcp 1040 ------- 5 14.0 15.0 2 29
+ 0.7328 1 15 tcp 1040 ------- 5 14.0 15.0 2 29
- 0.7328 1 15 tcp 1040 ------- 5 14.0 15.0 2 29
r 0.733776 1 0 ack 40 ------- 1 11.0 2.0 2 44
+ 0.733776 0 2 ack 40 ------- 1 11.0 2.0 2 44
- 0.733776 0 2 ack 40 ------- 1 11.0 2.0 2 44
r 0.735035 1 7 tcp 1040 ------- 8 8.0 7.0 1 30
+ 0.735035 7 1 ack 40 ------- 8 7.0 8.0 1 55
- 0.735035 7 1 ack 40 ------- 8 7.0 8.0 1 55
r 0.735477 0 18 ack 40 ------- 3 3.0 18.0 1 43
+ 0.735477 18 0 tcp 1040 ------- 3 18.0 3.0 3 56
- 0.735477 18 0 tcp 1040 ------- 3 18.0 3.0 3 56
+ 0.735477 18 0 tcp 1040 ------- 3 18.0 3.0 4 57
- 0.736032 18 0 tcp 1040 ------- 3 18.0 3.0 4 57
- 0.73608 0 1 tcp 1040 ------- 7 10.1 19.1 1 36
r 0.736736 11 1 ack 40 ------- 4 11.1 10.0 2 52
+ 0.736736 1 0 ack 40 ------- 4 11.1 10.0 2 52
- 0.736736 1 0 ack 40 ------- 4 11.1 10.0 2 52
r 0.737712 12 0 tcp 1040 ------- 0 12.0 13.0 5 53
+ 0.737712 0 1 tcp 1040 ------- 0 12.0 13.0 5 53
r 0.738267 12 0 tcp 1040 ------- 0 12.0 13.0 6 54
+ 0.738267 0 1 tcp 1040 ------- 0 12.0 13.0 6 54
r 0.74112 0 1 tcp 1040 ------- 2 12.1 19.0 1 32
+ 0.74112 1 19 tcp 1040 ------- 2 12.1 19.0 1 32
- 0.74112 1 19 tcp 1040 ------- 2 12.1 19.0 1 32
r 0.742096 1 0 ack 40 ------- 4 11.1 10.0 1 45
+ 0.742096 0 10 ack 40 ------- 4 11.1 10.0 1 45
- 0.742096 0 10 ack 40 ------- 4 11.1 10.0 1 45
r 0.743355 1 15 tcp 1040 ------- 5 14.0 15.0 2 29
+ 0.743355 15 1 ack 40 ------- 5 15.0 14.0 2 58
- 0.743355 15 1 ack 40 ------- 5 15.0 14.0 2 58
r 0.743797 0 2 ack 40 ------- 1 11.0 2.0 2 44
+ 0.743797 2 0 tcp 1040 ------- 1 2.0 11.0 5 59
- 0.743797 2 0 tcp 1040 ------- 1 2.0 11.0 5 59
+ 0.743797 2 0 tcp 1040 ------- 1 2.0 11.0 6 60
- 0.744352 2 0 tcp 1040 ------- 1 2.0 11.0 6 60
- 0.7444 0 1 tcp 1040 ------- 9 2.1 15.1 2 35
r 0.745056 7 1 ack 40 ------- 8 7.0 8.0 1 55
+ 0.745056 1 0 ack 40 ------- 8 7.0 8.0 1 55
- 0.745056 1 0 ack 40 ------- 8 7.0 8.0 1 55
r 0.746032 18 0 tcp 1040 ------- 3 18.0 3.0 3 56
+ 0.746032 0 1 tcp 1040 ------- 3 18.0 3.0 3 56
r 0.746587 18 0 tcp 1040 ------- 3 18.0 3.0 4 57
+ 0.746587 0 1 tcp 1040 ------- 3 18.0 3.0 4 57
r 0.74944 0 1 tcp 1040 ------- 8 8.0 7.0 2 31
+ 0.74944 1 7 tcp 1040 ------- 8 8.0 7.0 2 31
- 0.74944 1 7 tcp 1040 ------- 8 8.0 7.0 2 31
r 0.750416 1 0 ack 40 ------- 3 3.0 18.0 2 46
+ 0.750416 0 18 ack 40 ------- 3 3.0 18.0 2 46
- 0.750416 0 18 ack 40 ------- 3 3.0 18.0 2 46
r 0.751675 1 19 tcp 1040 ------- 2 12.1 19.0 1 32
+ 0.751675 19 1 ack 40 ------- 2 19.0 12.1 1 61
- 0.751675 19 1 ack 40 ------- 2 19.0 12.1 1 61
r 0.752117 0 10 ack 40 ------- 4 11.1 10.0 1 45
+ 0.752117 10 0 tcp 1040 ------- 4 10.0 11.1 3 62
- 0.752117 10 0 tcp 1040 ------- 4 10.0 11.1 3 62
+ 0.752117 10 0 tcp 1040 ------- 4 10.0 11.1 4 63
- 0.752672 10 0 tcp 1040 ------- 4 10.0 11.1 4 63
- 0.75272 0 1 tcp 1040 ------- 6 14.1 13.1 1 38
r 0.753376 15 1 ack 40 ------- 5 15.0 14.0 2 58
+ 0.753376 1 0 ack 40 ------- 5 15.0 14.0 2 58
- 0.753376 1 0 ack 40 ------- 5 15.0 14.0 2 58
r 0.754352 2 0 tcp 1040 ------- 1 2.0 11.0 5 59
+ 0.754352 0 1 tcp 1040 ------- 1 2.0 11.0 5 59
r 0.754907 2 0 tcp 1040 ------- 1 2.0 11.0 6 60
+ 0.754907 0 1 tcp 1040 ------- 1 2.0 11.0 6 60
r 0.75776 0 1 tcp 1040 ------- 9 2.1 15.1 1 34
+ 0.75776 1 15 tcp 1040 ------- 9 2.1 15.1 1 34
- 0.75776 1 15 tcp 1040 ------- 9 2.1 15.1 1 34
r 0.758736 1 0 ack 40 ------- 5 15.0 14.0 1 49
+ 0.758736 0 14 ack 40 ------- 5 15.0 14.0 1 49
- 0.758736 0 14 ack 40 ------- 5 15.0 14.0 1 49
r 0.759995 1 7 tcp 1040 ------- 8 8.0 7.0 2 31
+ 0.759995 7 1 ack 40 ------- 8 7.0 8.0 2 64
- 0.759995 7 1 ack 40 ------- 8 7.0 8.0 2 64
r 0.760437 0 18 ack 40 ------- 3 3.0 18.0 2 46
+ 0.760437 18 0 tcp 1040 ------- 3 18.0 3.0 5 65
- 0.760437 18 0 tcp 1040 ------- 3 18.0 3.0 5 65
+ 0.760437 18 0 tcp 1040 ------- 3 18.0 3.0 6 66
- 0.760992 18 0 tcp 1040 ------- 3 18.0 3.0 6 66
- 0.76104 0 1 tcp 1040 ------- 7 10.1 19.1 2 37
r 0.761696 19 1 ack 40 ------- 2 19.0 12.1 1 61
+ 0.761696 1 0 ack 40 ------- 2 19.0 12.1 1 61
- 0.761696 1 0 ack 40 ------- 2 19.0 12.1 1 61
r 0.762672 10 0 tcp 1040 ------- 4 10.0 11.1 3 62
+ 0.762672 0 1 tcp 1040 ------- 4 10.0 11.1 3 62
r 0.763227 10 0 tcp 1040 ------- 4 10.0 11.1 4 63
+ 0.763227 0 1 tcp 1040 ------- 4 10.0 11.1 4 63
r 0.76608 0 1 tcp 1040 ------- 2 12.1 19.0 2 33
+ 0.76608 1 19 tcp 1040 ------- 2 12.1 19.0 2 33
- 0.76608 1 19 tcp 1040 ------- 2 12.1 19.0 2 33
r 0.767056 1 0 ack 40 ------- 4 11.1 10.0 2 52
+ 0.767056 0 10 ack 40 ------- 4 11.1 10.0 2 52
- 0.767056 0 10 ack 40 ------- 4 11.1 10.0 2 52
r 0.768315 1 15 tcp 1040 ------- 9 2.1 15.1 1 34
+ 0.768315 15 1 ack 40 ------- 9 15.1 2.1 1 67
- 0.768315 15 1 ack 40 ------- 9 15.1 2.1 1 67
r 0.768757 0 14 ack 40 ------- 5 15.0 14.0 1 49
+ 0.768757 14 0 tcp 1040 ------- 5 14.0 15.0 3 68
- 0.768757 14 0 tcp 1040 ------- 5 14.0 15.0 3 68
+ 0.768757 14 0 tcp 1040 ------- 5 14.0 15.0 4 69
- 0.769312 14 0 tcp 1040 ------- 5 14.0 15.0 4 69
- 0.76936 0 1 tcp 1040 ------- 6 14.1 13.1 2 39
r 0.770016 7 1 ack 40 ------- 8 7.0 8.0 2 64
+ 0.770016 1 0 ack 40 ------- 8 7.0 8.0 2 64
- 0.770016 1 0 ack 40 ------- 8 7.0 8.0 2 64
r 0.770992 18 0 tcp 1040 ------- 3 18.0 3.0 5 65
+ 0.770992 0 1 tcp 1040 ------- 3 18.0 3.0 5 65
r 0.771547 18 0 tcp 1040 ------- 3 18.0 3.0 6 66
+ 0.771547 0 1 tcp 1040 ------- 3 18.0 3.0 6 66
r 0.7744 0 1 tcp 1040 ------- 7 10.1 19.1 1 36
+ 0.7744 1 19 tcp 1040 ------- 7 10.1 19.1 1 36
- 0.7744 1 19 tcp 1040 ------- 7 10.1 19.1 1 36
r 0.775376 1 0 ack 40 ------- 8 7.0 8.0 1 55
+ 0.775376 0 8 ack 40 ------- 8 7.0 8.0 1 55
- 0.775376 0 8 ack 40 ------- 8 7.0 8.0 1 55
r 0.776635 1 19 tcp 1040 ------- 2 12.1 19.0 2 33
+ 0.776635 19 1 ack 40 ------- 2 19.0 12.1 2 70
- 0.776635 19 1 ack 40 ------- 2 19.0 12.1 2 70
r 0.777077 0 10 ack 40 ------- 4 11.1 10.0 2 52
+ 0.777077 10 0 tcp 1040 ------- 4 10.0 11.1 5 71
- 0.777077 10 0 tcp 1040 ------- 4 10.0 11.1 5 71
+ 0.777077 10 0 tcp 1040 ------- 4 10.0 11.1 6 72
- 0.777632 10 0 tcp 1040 ------- 4 10.0 11.1 6 72
- 0.77768 0 1 tcp 1040 ------- 0 12.0 13.0 3 47
r 0.778336 15 1 ack 40 ------- 9 15.1 2.1 1 67
+ 0.778336 1 0 ack 40 ------- 9 15.1 2.1 1 67
- 0.778336 1 0 ack 40 ------- 9 15.1 2.1 1 67
r 0.779312 14 0 tcp 1040 ------- 5 14.0 15.0 3 68
+ 0.779312 0 1 tcp 1040 ------- 5 14.0 15.0 3 68
r 0.779867 14 0 tcp 1040 ------- 5 14.0 15.0 4 69
+ 0.779867 0 1 tcp 1040 ------- 5 14.0 15.0 4 69
r 0.78272 0 1 tcp 1040 ------- 9 2.1 15.1 2 35
+ 0.78272 1 15 tcp 1040 ------- 9 2.1 15.1 2 35
- 0.78272 1 15 tcp 1040 ------- 9 2.1 15.1 2 35
r 0.783696 1 0 ack 40 ------- 5 15.0 14.0 2 58
+ 0.783696 0 14 ack 40 ------- 5 15.0 14.0 2 58
- 0.783696 0 14 ack 40 ------- 5 15.0 14.0 2 58
r 0.784955 1 19 tcp 1040 ------- 7 10.1 19.1 1 36
+ 0.784955 19 1 ack 40 ------- 7 19.1 10.1 1 73
- 0.784955 19 1 ack 40 ------- 7 19.1 10.1 1 73
r 0.785397 0 8 ack 40 ------- 8 7.0 8.0 1 55
+ 0.785397 8 0 tcp 1040 ------- 8 8.0 7.0 3 74
- 0.785397 8 0 tcp 1040 ------- 8 8.0 7.0 3 74
+ 0.785397 8 0 tcp 1040 ------- 8 8.0 7.0 4 75
- 0.785952 8 0 tcp 1040 ------- 8 8.0 7.0 4 75
- 0.786 0 1 tcp 1040 ------- 0 12.0 13.0 4 48
r 0.786656 19 1 ack 40 ------- 2 19.0 12.1 2 70
+ 0.786656 1 0 ack 40 ------- 2 19.0 12.1 2 70
- 0.786656 1 0 ack 40 ------- 2 19.0 12.1 2 70
r 0.787632 10 0 tcp 1040 ------- 4 10.0 11.1 5 71
+ 0.787632 0 1 tcp 1040 ------- 4 10.0 11.1 5 71
r 0.788187 10 0 tcp 1040 ------- 4 10.0 11.1 6 72
+ 0.788187 0 1 tcp 1040 ------- 4 10.0 11.1 6 72
r 0.79104 0 1 tcp 1040 ------- 6 14.1 13.1 1 38
+ 0.79104 1 13 tcp 1040 ------- 6 14.1 13.1 1 38
- 0.79104 1 13 tcp 1040 ------- 6 14.1 13.1 1 38
r 0.792016 1 0 ack 40 ------- 2 19.0 12.1 1 61
+ 0.792016 0 12 ack 40 ------- 2 19.0 12.1 1 61
- 0.792016 0 12 ack 40 ------- 2 19.0 12.1 1 61
r 0.793275 1 15 tcp 1040 ------- 9 2.1 15.1 2 35
+ 0.793275 15 1 ack 40 ------- 9 15.1 2.1 2 76
- 0.793275 15 1 ack 40 ------- 9 15.1 2.1 2 76
r 0.793717 0 14 ack 40 ------- 5 15.0 14.0 2 58
+ 0.793717 14 0 tcp 1040 ------- 5 14.0 15.0 5 77
- 0.793717 14 0 tcp 1040 ------- 5 14.0 15.0 5 77
+ 0.793717 14 0 tcp 1040 ------- 5 14.0 15.0 6 78
- 0.794272 14 0 tcp 1040 ------- 5 14.0 15.0 6 78
- 0.79432 0 1 tcp 1040 ------- 1 2.0 11.0 3 50
r 0.794976 19 1 ack 40 ------- 7 19.1 10.1 1 73
+ 0.794976 1 0 ack 40 ------- 7 19.1 10.1 1 73
- 0.794976 1 0 ack 40 ------- 7 19.1 10.1 1 73
r 0.795952 8 0 tcp 1040 ------- 8 8.0 7.0 3 74
+ 0.795952 0 1 tcp 1040 ------- 8 8.0 7.0 3 74
r 0.796507 8 0 tcp 1040 ------- 8 8.0 7.0 4 75
+ 0.796507 0 1 tcp 1040 ------- 8 8.0 7.0 4 75
r 0.79936 0 1 tcp 1040 ------- 7 10.1 19.1 2 37
+ 0.79936 1 19 tcp 1040 ------- 7 10.1 19.1 2 37
- 0.79936 1 19 tcp 1040 ------- 7 10.1 19.1 2 37
r 0.800336 1 0 ack 40 ------- 8 7.0 8.0 2 64
+ 0.800336 0 8 ack 40 ------- 8 7.0 8.0 2 64
- 0.800336 0 8 ack 40 ------- 8 7.0 8.0 2 64
r 0.801595 1 13 tcp 1040 ------- 6 14.1 13.1 1 38
+ 0.801595 13 1 ack 40 ------- 6 13.1 14.1 1 79
- 0.801595 13 1 ack 40 ------- 6 13.1 14.1 1 79
r 0.802037 0 12 ack 40 ------- 2 19.0 12.1 1 61
+ 0.802037 12 0 tcp 1040 ------- 2 12.1 19.0 3 80
- 0.802037 12 0 tcp 1040 ------- 2 12.1 19.0 3 80
+ 0.802037 12 0 tcp 1040 ------- 2 12.1 19.0 4 81
- 0.802592 12 0 tcp 1040 ------- 2 12.1 19.0 4 81
- 0.80264 0 1 tcp 1040 ------- 1 2.0 11.0 4 51
r 0.803296 15 1 ack 40 ------- 9 15.1 2.1 2 76
+ 0.803296 1 0 ack 40 ------- 9 15.1 2.1 2 76
- 0.803296 1 0 ack 40 ------- 9 15.1 2.1 2 76
r 0.804272 14 0 tcp 1040 ------- 5 14.0 15.0 5 77
+ 0.804272 0 1 tcp 1040 ------- 5 14.0 15.0 5 77
r 0.804827 14 0 tcp 1040 ------- 5 14.0 15.0 6 78
+ 0.804827 0 1 tcp 1040 ------- 5 14.0 15.0 6 78
r 0.80768 0 1 tcp 1040 ------- 6 14.1 13.1 2 39
+ 0.80768 1 13 tcp 1040 ------- 6 14.1 13.1 2 39
- 0.80768 1 13 tcp 1040 ------- 6 14.1 13.1 2 39
r 0.808656 1 0 ack 40 ------- 9 15.1 2.1 1 67
+ 0.808656 0 2 ack 40 ------- 9 15.1 2.1 1 67
- 0.808656 0 2 ack 40 ------- 9 15.1 2.1 1 67
r 0.809915 1 19 tcp 1040 ------- 7 10.1 19.1 2 37
+ 0.809915 19 1 ack 40 ------- 7 19.1 10.1 2 82
- 0.809915 19 1 ack 40 ------- 7 19.1 10.1 2 82
r 0.810357 0 8 ack 40 ------- 8 7.0 8.0 2 64
+ 0.810357 8 0 tcp 1040 ------- 8 8.0 7.0 5 83
- 0.810357 8 0 tcp 1040 ------- 8 8.0 7.0 5 83
+ 0.810357 8 0 tcp 1040 ------- 8 8.0 7.0 6 84
- 0.810912 8 0 tcp 1040 ------- 8 8.0 7.0 6 84
- 0.81096 0 1 tcp 1040 ------- 0 12.0 13.0 5 53
r 0.811616 13 1 ack 40 ------- 6 13.1 14.1 1 79
+ 0.811616 1 0 ack 40 ------- 6 13.1 14.1 1 79
- 0.811616 1 0 ack 40 ------- 6 13.1 14.1 1 79
r 0.812592 12 0 tcp 1040 ------- 2 12.1 19.0 3 80
+ 0.812592 0 1 tcp 1040 ------- 2 12.1 19.0 3 80
r 0.813147 12 0 tcp 1040 ------- 2 12.1 19.0 4 81
+ 0.813147 0 1 tcp 1040 ------- 2 12.1 19.0 4 81
r 0.816 0 1 tcp 1040 ------- 0 12.0 13.0 3 47
+ 0.816 1 13 tcp 1040 ------- 0 12.0 13.0 3 47
- 0.816 1 13 tcp 1040 ------- 0 12.0 13.0 3 47
r 0.816976 1 0 ack 40 ------- 2 19.0 12.1 2 70
+ 0.816976 0 12 ack 40 ------- 2 19.0 12.1 2 70
- 0.816976 0 12 ack 40 ------- 2 19.0 12.1 2 70
r 0.818235 1 13 tcp 1040 ------- 6 14.1 13.1 2 39
+ 0.818235 13 1 ack 40 ------- 6 13.1 14.1 2 85
- 0.818235 13 1 ack 40 ------- 6 13.1 14.1 2 85
r 0.818677 0 2 ack 40 ------- 9 15.1 2.1 1 67
+ 0.818677 2 0 tcp 1040 ------- 9 2.1 15.1 3 86
- 0.818677 2 0 tcp 1040 ------- 9 2.1 15.1 3 86
+ 0.818677 2 0 tcp 1040 ------- 9 2.1 15.1 4 87
- 0.819232 2 0 tcp 1040 ------- 9 2.1 15.1 4 87
- 0.81928 0 1 tcp 1040 ------- 0 12.0 13.0 6 54
r 0.819936 19 1 ack 40 ------- 7 19.1 10.1 2 82
+ 0.819936 1 0 ack 40 ------- 7 19.1 10.1 2 82
- 0.819936 1 0 ack 40 ------- 7 19.1 10.1 2 82
r 0.820912 8 0 tcp 1040 ------- 8 8.0 7.0 5 83
+ 0.820912 0 1 tcp 1040 ------- 8 8.0 7.0 5 83
r 0.821467 8 0 tcp 1040 ------- 8 8.0 7.0 6 84