s 0.031084838 _24_ RTR  --- 0 message 32 [0 0 0 0] ------- [24:255 -1:255 32 0] 
r 0.031924905 _31_ RTR  --- 0 message 32 [0 ffffffff 18 800] ------- [24:255 -1:255 32 0] 
r 0.031925076 _13_ RTR  --- 0 message 32 [0 ffffffff 18 800] ------- [24:255 -1:255 32 0] 
r 0.031925086 _16_ RTR  --- 0 message 32 [0 ffffffff 18 800] ------- [24:255 -1:255 32 0] 
r 0.031925193 _35_ RTR  --- 0 message 32 [0 ffffffff 18 800] ------- [24:255 -1:255 32 0] 
r 0.031925201 _11_ RTR  --- 0 message 32 [0 ffffffff 18 800] ------- [24:255 -1:255 32 0] 
r 0.031925268 _27_ RTR  --- 0 message 32 [0 ffffffff 18 800] ------- [24:255 -1:255 32 0] 
r 0.031925292 _10_ RTR  --- 0 message 32 [0 ffffffff 18 800] ------- [24:255 -1:255 32 0] 
r 0.031925352 _39_ RTR  --- 0 message 32 [0 ffffffff 18 800] ------- [24:255 -1:255 32 0] 
r 0.031925360 _33_ RTR  --- 0 message 32 [0 ffffffff 18 800] ------- [24:255 -1:255 32 0] 
r 0.031925362 _32_ RTR  --- 0 message 32 [0 ffffffff 18 800] ------- [24:255 -1:255 32 0] 
r 0.031925381 _25_ RTR  --- 0 message 32 [0 ffffffff 18 800] ------- [24:255 -1:255 32 0] 
r 0.031925385 _37_ RTR  --- 0 message 32 [0 ffffffff 18 800] ------- [24:255 -1:255 32 0] 
r 0.031925387 _7_ RTR  --- 0 message 32 [0 ffffffff 18 800] ------- [24:255 -1:255 32 0] 
r 0.031925402 _28_ RTR  --- 0 message 32 [0 ffffffff 18 800] ------- [24:255 -1:255 32 0] 
r 0.031925402 _26_ RTR  --- 0 message 32 [0 ffffffff 18 800] ------- [24:255 -1:255 32 0] 
r 0.031925420 _4_ RTR  --- 0 message 32 [0 ffffffff 18 800] ------- [24:255 -1:255 32 0] 
r 0.031925435 _8_ RTR  --- 0 message 32 [0 ffffffff 18 800] ------- [24:255 -1:255 32 0] 
r 0.031925475 _36_ RTR  --- 0 message 32 [0 ffffffff 18 800] ------- [24:255 -1:255 32 0] 
r 0.031925482 _12_ RTR  --- 0 message 32 [0 ffffffff 18 800] ------- [24:255 -1:255 32 0] 
r 0.031925525 _5_ RTR  --- 0 message 32 [0 ffffffff 18 800] ------- [24:255 -1:255 32 0] 
r 0.031925541 _0_ RTR  --- 0 message 32 [0 ffffffff 18 800] ------- [24:255 -1:255 32 0] 
r 0.031925546 _6_ RTR  --- 0 message 32 [0 ffffffff 18 800] ------- [24:255 -1:255 32 0] 
r 0.031925553 _18_ RTR  --- 0 message 32 [0 ffffffff 18 800] ------- [24:255 -1:255 32 0] 
r 0.031925567 _22_ RTR  --- 0 message 32 [0 ffffffff 18 800] ------- [24:255 -1:255 32 0] 
r 0.031925569 _20_ RTR  --- 0 message 32 [0 ffffffff 18 800] ------- [24:255 -1:255 32 0] 
r 0.031925626 _19_ RTR  --- 0 message 32 [0 ffffffff 18 800] ------- [24:255 -1:255 32 0] 
r 0.031925632 _15_ RTR  --- 0 message 32 [0 ffffffff 18 800] ------- [24:255 -1:255 32 0] 
r 0.031925644 _9_ RTR  --- 0 message 32 [0 ffffffff 18 800] ------- [24:255 -1:255 32 0] 
r 0.031925649 _38_ RTR  --- 0 message 32 [0 ffffffff 18 800] ------- [24:255 -1:255 32 0] 
r 0.031925664 _21_ RTR  --- 0 message 32 [0 ffffffff 18 800] ------- [24:255 -1:255 32 0] 
r 0.031925671 _23_ RTR  --- 0 message 32 [0 ffffffff 18 800] ------- [24:255 -1:255 32 0] 
s 0.056902223 _36_ RTR  --- 1 message 32 [0 0 0 0] ------- [36:255 -1:255 32 0] 
r 0.058022319 _7_ RTR  --- 1 message 32 [0 ffffffff 24 800] ------- [36:255 -1:255 32 0] 
r 0.058022411 _15_ RTR  --- 1 message 32 [0 ffffffff 24 800] ------- [36:255 -1:255 32 0] 
r 0.058022415 _32_ RTR  --- 1 message 32 [0 ffffffff 24 800] ------- [36:255 -1:255 32 0] 
r 0.058022440 _9_ RTR  --- 1 message 32 [0 ffffffff 24 800] ------- [36:255 -1:255 32 0] 
r 0.058022514 _1_ RTR  --- 1 message 32 [0 ffffffff 24 800] ------- [36:255 -1:255 32 0] 
r 0.058022585 _10_ RTR  --- 1 message 32 [0 ffffffff 24 800] ------- [36:255 -1:255 32 0] 
r 0.058022630 _27_ RTR  --- 1 message 32 [0 ffffffff 24 800] ------- [36:255 -1:255 32 0] 
r 0.058022652 _0_ RTR  --- 1 message 32 [0 ffffffff 24 800] ------- [36:255 -1:255 32 0] 
r 0.058022658 _16_ RTR  --- 1 message 32 [0 ffffffff 24 800] ------- [36:255 -1:255 32 0] 
r 0.058022679 _11_ RTR  --- 1 message 32 [0 ffffffff 24 800] ------- [36:255 -1:255 32 0] 
r 0.058022789 _21_ RTR  --- 1 message 32 [0 ffffffff 24 800] ------- [36:255 -1:255 32 0] 
r 0.058022793 _12_ RTR  --- 1 message 32 [0 ffffffff 24 800] ------- [36:255 -1:255 32 0] 
r 0.058022795 _31_ RTR  --- 1 message 32 [0 ffffffff 24 800] ------- [36:255 -1:255 32 0] 
r 0.058022797 _39_ RTR  --- 1 message 32 [0 ffffffff 24 800] ------- [36:255 -1:255 32 0] 
r 0.058022820 _34_ RTR  --- 1 message 32 [0 ffffffff 24 800] ------- [36:255 -1:255 32 0] 
r 0.058022843 _3_ RTR  --- 1 message 32 [0 ffffffff 24 800] ------- [36:255 -1:255 32 0] 
r 0.058022853 _29_ RTR  --- 1 message 32 [0 ffffffff 24 800] ------- [36:255 -1:255 32 0] 
r 0.058022860 _24_ RTR  --- 1 message 32 [0 ffffffff 24 800] ------- [36:255 -1:255 32 0] 
r 0.058022887 _19_ RTR  --- 1 message 32 [0 ffffffff 24 800] ------- [36:255 -1:255 32 0] 
r 0.058022922 _18_ RTR  --- 1 message 32 [0 ffffffff 24 800] ------- [36:255 -1:255 32 0] 
r 0.058022925 _14_ RTR  --- 1 message 32 [0 ffffffff 24 800] ------- [36:255 -1:255 32 0] 
r 0.058022925 _33_ RTR  --- 1 message 32 [0 ffffffff 24 800] ------- [36:255 -1:255 32 0] 
r 0.058022942 _28_ RTR  --- 1 message 32 [0 ffffffff 24 800] ------- [36:255 -1:255 32 0] 
r 0.058023040 _13_ RTR  --- 1 message 32 [0 ffffffff 24 800] ------- [36:255 -1:255 32 0] 
r 0.058023044 _30_ RTR  --- 1 message 32 [0 ffffffff 24 800] ------- [36:255 -1:255 32 0] 
s 0.117306589 _23_ RTR  --- 2 message 32 [0 0 0 0] ------- [23:255 -1:255 32 0] 
r 0.118326773 _5_ RTR  --- 2 message 32 [0 ffffffff 17 800] ------- [23:255 -1:255 32 0] 
r 0.118326825 _8_ RTR  --- 2 message 32 [0 ffffffff 17 800] ------- [23:255 -1:255 32 0] 
r 0.118326884 _4_ RTR  --- 2 message 32 [0 ffffffff 17 800] ------- [23:255 -1:255 32 0] 
r 0.118327177 _35_ RTR  --- 2 message 32 [0 ffffffff 17 800] ------- [23:255 -1:255 32 0] 
r 0.118327188 _13_ RTR  --- 2 message 32 [0 ffffffff 17 800] ------- [23:255 -1:255 32 0] 
r 0.118327249 _37_ RTR  --- 2 message 32 [0 ffffffff 17 800] ------- [23:255 -1:255 32 0] 
r 0.118327333 _22_ RTR  --- 2 message 32 [0 ffffffff 17 800] ------- [23:255 -1:255 32 0] 
r 0.118327408 _28_ RTR  --- 2 message 32 [0 ffffffff 17 800] ------- [23:255 -1:255 32 0] 
r 0.118327421 _24_ RTR  --- 2 message 32 [0 ffffffff 17 800] ------- [23:255 -1:255 32 0] 
s 0.222609144 _16_ RTR  --- 3 message 32 [0 0 0 0] ------- [16:255 -1:255 32 0] 
r 0.223629288 _11_ RTR  --- 3 message 32 [0 ffffffff 10 800] ------- [16:255 -1:255 32 0] 
r 0.223629329 _31_ RTR  --- 3 message 32 [0 ffffffff 10 800] ------- [16:255 -1:255 32 0] 
r 0.223629352 _10_ RTR  --- 3 message 32 [0 ffffffff 10 800] ------- [16:255 -1:255 32 0] 
r 0.223629392 _24_ RTR  --- 3 message 32 [0 ffffffff 10 800] ------- [16:255 -1:255 32 0] 
r 0.223629432 _32_ RTR  --- 3 message 32 [0 ffffffff 10 800] ------- [16:255 -1:255 32 0] 
r 0.223629506 _7_ RTR  --- 3 message 32 [0 ffffffff 10 800] ------- [16:255 -1:255 32 0] 
r 0.223629528 _13_ RTR  --- 3 message 32 [0 ffffffff 10 800] ------- [16:255 -1:255 32 0] 
r 0.223629548 _27_ RTR  --- 3 message 32 [0 ffffffff 10 800] ------- [16:255 -1:255 32 0] 
r 0.223629571 _28_ RTR  --- 3 message 32 [0 ffffffff 10 800] ------- [16:255 -1:255 32 0] 
r 0.223629575 _12_ RTR  --- 3 message 32 [0 ffffffff 10 800] ------- [16:255 -1:255 32 0] 
r 0.223629579 _36_ RTR  --- 3 message 32 [0 ffffffff 10 800] ------- [16:255 -1:255 32 0] 
r 0.223629625 _37_ RTR  --- 3 message 32 [0 ffffffff 10 800] ------- [16:255 -1:255 32 0] 
r 0.223629702 _39_ RTR  --- 3 message 32 [0 ffffffff 10 800] ------- [16:255 -1:255 32 0] 
r 0.223629711 _15_ RTR  --- 3 message 32 [0 ffffffff 10 800] ------- [16:255 -1:255 32 0] 
r 0.223629728 _35_ RTR  --- 3 message 32 [0 ffffffff 10 800] ------- [16:255 -1:255 32 0] 
r 0.223629766 _33_ RTR  --- 3 message 32 [0 ffffffff 10 800] ------- [16:255 -1:255 32 0] 
r 0.223629775 _22_ RTR  --- 3 message 32 [0 ffffffff 10 800] ------- [16:255 -1:255 32 0] 
r 0.223629777 _9_ RTR  --- 3 message 32 [0 ffffffff 10 800] ------- [16:255 -1:255 32 0] 
r 0.223629783 _0_ RTR  --- 3 message 32 [0 ffffffff 10 800] ------- [16:255 -1:255 32 0] 
r 0.223629819 _4_ RTR  --- 3 message 32 [0 ffffffff 10 800] ------- [16:255 -1:255 32 0] 
r 0.223629826 _1_ RTR  --- 3 message 32 [0 ffffffff 10 800] ------- [16:255 -1:255 32 0] 
r 0.223629845 _25_ RTR  --- 3 message 32 [0 ffffffff 10 800] ------- [16:255 -1:255 32 0] 
r 0.223629874 _8_ RTR  --- 3 message 32 [0 ffffffff 10 800] ------- [16:255 -1:255 32 0] 
r 0.223629901 _18_ RTR  --- 3 message 32 [0 ffffffff 10 800] ------- [16:255 -1:255 32 0] 
r 0.223629926 _21_ RTR  --- 3 message 32 [0 ffffffff 10 800] ------- [16:255 -1:255 32 0] 
r 0.223629934 _5_ RTR  --- 3 message 32 [0 ffffffff 10 800] ------- [16:255 -1:255 32 0] 
r 0.223629938 _2_ RTR  --- 3 message 32 [0 ffffffff 10 800] ------- [16:255 -1:255 32 0] 
r 0.223629938 _19_ RTR  --- 3 message 32 [0 ffffffff 10 800] ------- [16:255 -1:255 32 0] 
r 0.223629954 _26_ RTR  --- 3 message 32 [0 ffffffff 10 800] ------- [16:255 -1:255 32 0] 
r 0.223629964 _3_ RTR  --- 3 message 32 [0 ffffffff 10 800] ------- [16:255 -1:255 32 0] 
s 0.231343049 _22_ RTR  --- 4 message 32 [0 0 0 0] ------- [22:255 -1:255 32 0] 
r 0.232283237 _37_ RTR  --- 4 message 32 [0 ffffffff 16 800] ------- [22:255 -1:255 32 0] 
r 0.232283263 _28_ RTR  --- 4 message 32 [0 ffffffff 16 800] ------- [22:255 -1:255 32 0] 
r 0.232283444 _12_ RTR  --- 4 message 32 [0 ffffffff 16 800] ------- [22:255 -1:255 32 0] 
r 0.232283555 _4_ RTR  --- 4 message 32 [0 ffffffff 16 800] ------- [22:255 -1:255 32 0] 
r 0.232283560 _2_ RTR  --- 4 message 32 [0 ffffffff 16 800] ------- [22:255 -1:255 32 0] 
r 0.232283563 _11_ RTR  --- 4 message 32 [0 ffffffff 16 800] ------- [22:255 -1:255 32 0] 
r 0.232283622 _10_ RTR  --- 4 message 32 [0 ffffffff 16 800] ------- [22:255 -1:255 32 0] 
r 0.232283625 _5_ RTR  --- 4 message 32 [0 ffffffff 16 800] ------- [22:255 -1:255 32 0] 
r 0.232283642 _13_ RTR  --- 4 message 32 [0 ffffffff 16 800] ------- [22:255 -1:255 32 0] 
r 0.232283677 _8_ RTR  --- 4 message 32 [0 ffffffff 16 800] ------- [22:255 -1:255 32 0] 
r 0.232283680 _16_ RTR  --- 4 message 32 [0 ffffffff 16 800] ------- [22:255 -1:255 32 0] 
r 0.232283762 _31_ RTR  --- 4 message 32 [0 ffffffff 16 800] ------- [22:255 -1:255 32 0] 
r 0.232283778 _24_ RTR  --- 4 message 32 [0 ffffffff 16 800] ------- [22:255 -1:255 32 0] 
r 0.232283788 _32_ RTR  --- 4 message 32 [0 ffffffff 16 800] ------- [22:255 -1:255 32 0] 
r 0.232283794 _23_ RTR  --- 4 message 32 [0 ffffffff 16 800] ------- [22:255 -1:255 32 0] 
r 0.232283844 _30_ RTR  --- 4 message 32 [0 ffffffff 16 800] ------- [22:255 -1:255 32 0] 
r 0.232283877 _35_ RTR  --- 4 message 32 [0 ffffffff 16 800] ------- [22:255 -1:255 32 0] 
s 0.254227110 _27_ RTR  --- 5 message 32 [0 0 0 0] ------- [27:255 -1:255 32 0] 
r 0.255647291 _39_ RTR  --- 5 message 32 [0 ffffffff 1b 800] ------- [27:255 -1:255 32 0] 
r 0.255647384 _0_ RTR  --- 5 message 32 [0 ffffffff 1b 800] ------- [27:255 -1:255 32 0] 
r 0.255647408 _33_ RTR  --- 5 message 32 [0 ffffffff 1b 800] ------- [27:255 -1:255 32 0] 
r 0.255647430 _7_ RTR  --- 5 message 32 [0 ffffffff 1b 800] ------- [27:255 -1:255 32 0] 
r 0.255647470 _18_ RTR  --- 5 message 32 [0 ffffffff 1b 800] ------- [27:255 -1:255 32 0] 
r 0.255647500 _19_ RTR  --- 5 message 32 [0 ffffffff 1b 800] ------- [27:255 -1:255 32 0] 
r 0.255647501 _31_ RTR  --- 5 message 32 [0 ffffffff 1b 800] ------- [27:255 -1:255 32 0] 
r 0.255647509 _21_ RTR  --- 5 message 32 [0 ffffffff 1b 800] ------- [27:255 -1:255 32 0] 
r 0.255647514 _16_ RTR  --- 5 message 32 [0 ffffffff 1b 800] ------- [27:255 -1:255 32 0] 
r 0.255647517 _36_ RTR  --- 5 message 32 [0 ffffffff 1b 800] ------- [27:255 -1:255 32 0] 
r 0.255647538 _3_ RTR  --- 5 message 32 [0 ffffffff 1b 800] ------- [27:255 -1:255 32 0] 
r 0.255647540 _24_ RTR  --- 5 message 32 [0 ffffffff 1b 800] ------- [27:255 -1:255 32 0] 
r 0.255647554 _32_ RTR  --- 5 message 32 [0 ffffffff 1b 800] ------- [27:255 -1:255 32 0] 
r 0.255647556 _25_ RTR  --- 5 message 32 [0 ffffffff 1b 800] ------- [27:255 -1:255 32 0] 
r 0.255647575 _1_ RTR  --- 5 message 32 [0 ffffffff 1b 800] ------- [27:255 -1:255 32 0] 
r 0.255647583 _9_ RTR  --- 5 message 32 [0 ffffffff 1b 800] ------- [27:255 -1:255 32 0] 
r 0.255647589 _14_ RTR  --- 5 message 32 [0 ffffffff 1b 800] ------- [27:255 -1:255 32 0] 
r 0.255647634 _10_ RTR  --- 5 message 32 [0 ffffffff 1b 800] ------- [27:255 -1:255 32 0] 
r 0.255647640 _11_ RTR  --- 5 message 32 [0 ffffffff 1b 800] ------- [27:255 -1:255 32 0] 
r 0.255647705 _15_ RTR  --- 5 message 32 [0 ffffffff 1b 800] ------- [27:255 -1:255 32 0] 
r 0.255647730 _6_ RTR  --- 5 message 32 [0 ffffffff 1b 800] ------- [27:255 -1:255 32 0] 
r 0.255647740 _20_ RTR  --- 5 message 32 [0 ffffffff 1b 800] ------- [27:255 -1:255 32 0] 
r 0.255647752 _34_ RTR  --- 5 message 32 [0 ffffffff 1b 800] ------- [27:255 -1:255 32 0] 
r 0.255647776 _13_ RTR  --- 5 message 32 [0 ffffffff 1b 800] ------- [27:255 -1:255 32 0] 
r 0.255647786 _29_ RTR  --- 5 message 32 [0 ffffffff 1b 800] ------- [27:255 -1:255 32 0] 
r 0.255647853 _35_ RTR  --- 5 message 32 [0 ffffffff 1b 800] ------- [27:255 -1:255 32 0] 
r 0.255647896 _12_ RTR  --- 5 message 32 [0 ffffffff 1b 800] ------- [27:255 -1:255 32 0] 
r 0.255647899 _26_ RTR  --- 5 message 32 [0 ffffffff 1b 800] ------- [27:255 -1:255 32 0] 
r 0.255647938 _28_ RTR  --- 5 message 32 [0 ffffffff 1b 800] ------- [27:255 -1:255 32 0] 
s 0.376230368 _18_ RTR  --- 7 message 32 [0 0 0 0] ------- [18:255 -1:255 32 0] 
r 0.377390491 _19_ RTR  --- 7 message 32 [0 ffffffff 12 800] ------- [18:255 -1:255 32 0] 
r 0.377390572 _39_ RTR  --- 7 message 32 [0 ffffffff 12 800] ------- [18:255 -1:255 32 0] 
r 0.377390593 _14_ RTR  --- 7 message 32 [0 ffffffff 12 800] ------- [18:255 -1:255 32 0] 
r 0.377390599 _33_ RTR  --- 7 message 32 [0 ffffffff 12 800] ------- [18:255 -1:255 32 0] 
r 0.377390616 _3_ RTR  --- 7 message 32 [0 ffffffff 12 800] ------- [18:255 -1:255 32 0] 
r 0.377390643 _21_ RTR  --- 7 message 32 [0 ffffffff 12 800] ------- [18:255 -1:255 32 0] 
r 0.377390675 _0_ RTR  --- 7 message 32 [0 ffffffff 12 800] ------- [18:255 -1:255 32 0] 
r 0.377390728 _27_ RTR  --- 7 message 32 [0 ffffffff 12 800] ------- [18:255 -1:255 32 0] 
r 0.377390736 _25_ RTR  --- 7 message 32 [0 ffffffff 12 800] ------- [18:255 -1:255 32 0] 
r 0.377390819 _20_ RTR  --- 7 message 32 [0 ffffffff 12 800] ------- [18:255 -1:255 32 0] 
r 0.377390825 _6_ RTR  --- 7 message 32 [0 ffffffff 12 800] ------- [18:255 -1:255 32 0] 
r 0.377390965 _34_ RTR  --- 7 message 32 [0 ffffffff 12 800] ------- [18:255 -1:255 32 0] 
r 0.377390971 _1_ RTR  --- 7 message 32 [0 ffffffff 12 800] ------- [18:255 -1:255 32 0] 
r 0.377390988 _29_ RTR  --- 7 message 32 [0 ffffffff 12 800] ------- [18:255 -1:255 32 0] 
r 0.377391002 _7_ RTR  --- 7 message 32 [0 ffffffff 12 800] ------- [18:255 -1:255 32 0] 
r 0.377391028 _9_ RTR  --- 7 message 32 [0 ffffffff 12 800] ------- [18:255 -1:255 32 0] 
r 0.377391066 _31_ RTR  --- 7 message 32 [0 ffffffff 12 800] ------- [18:255 -1:255 32 0] 
r 0.377391067 _36_ RTR  --- 7 message 32 [0 ffffffff 12 800] ------- [18:255 -1:255 32 0] 
r 0.377391082 _17_ RTR  --- 7 message 32 [0 ffffffff 12 800] ------- [18:255 -1:255 32 0] 
r 0.377391083 _24_ RTR  --- 7 message 32 [0 ffffffff 12 800] ------- [18:255 -1:255 32 0] 
r 0.377391125 _16_ RTR  --- 7 message 32 [0 ffffffff 12 800] ------- [18:255 -1:255 32 0] 
r 0.377391156 _32_ RTR  --- 7 message 32 [0 ffffffff 12 800] ------- [18:255 -1:255 32 0] 
s 0.380266257 _38_ RTR  --- 6 message 32 [0 0 0 0] ------- [38:255 -1:255 32 0] 
r 0.381666508 _26_ RTR  --- 6 message 32 [0 ffffffff 26 800] ------- [38:255 -1:255 32 0] 
r 0.381666641 _17_ RTR  --- 6 message 32 [0 ffffffff 26 800] ------- [38:255 -1:255 32 0] 
r 0.381666787 _6_ RTR  --- 6 message 32 [0 ffffffff 26 800] ------- [38:255 -1:255 32 0] 
r 0.381666805 _20_ RTR  --- 6 message 32 [0 ffffffff 26 800] ------- [38:255 -1:255 32 0] 
r 0.381666852 _35_ RTR  --- 6 message 32 [0 ffffffff 26 800] ------- [38:255 -1:255 32 0] 
r 0.381666853 _25_ RTR  --- 6 message 32 [0 ffffffff 26 800] ------- [38:255 -1:255 32 0] 
r 0.381667019 _33_ RTR  --- 6 message 32 [0 ffffffff 26 800] ------- [38:255 -1:255 32 0] 
r 0.381667068 _24_ RTR  --- 6 message 32 [0 ffffffff 26 800] ------- [38:255 -1:255 32 0] 
s 0.437641063 _9_ RTR  --- 8 message 32 [0 0 0 0] ------- [9:255 -1:255 32 0] 
r 0.438901153 _1_ RTR  --- 8 message 32 [0 ffffffff 9 800] ------- [9:255 -1:255 32 0] 
r 0.438901280 _36_ RTR  --- 8 message 32 [0 ffffffff 9 800] ------- [9:255 -1:255 32 0] 
r 0.438901332 _15_ RTR  --- 8 message 32 [0 ffffffff 9 800] ------- [9:255 -1:255 32 0] 
r 0.438901334 _7_ RTR  --- 8 message 32 [0 ffffffff 9 800] ------- [9:255 -1:255 32 0] 
r 0.438901417 _0_ RTR  --- 8 message 32 [0 ffffffff 9 800] ------- [9:255 -1:255 32 0] 
r 0.438901457 _34_ RTR  --- 8 message 32 [0 ffffffff 9 800] ------- [9:255 -1:255 32 0] 
r 0.438901471 _32_ RTR  --- 8 message 32 [0 ffffffff 9 800] ------- [9:255 -1:255 32 0] 
r 0.438901488 _29_ RTR  --- 8 message 32 [0 ffffffff 9 800] ------- [9:255 -1:255 32 0] 
r 0.438901516 _21_ RTR  --- 8 message 32 [0 ffffffff 9 800] ------- [9:255 -1:255 32 0] 
r 0.438901536 _27_ RTR  --- 8 message 32 [0 ffffffff 9 800] ------- [9:255 -1:255 32 0] 
r 0.438901573 _3_ RTR  --- 8 message 32 [0 ffffffff 9 800] ------- [9:255 -1:255 32 0] 
r 0.438901641 _10_ RTR  --- 8 message 32 [0 ffffffff 9 800] ------- [9:255 -1:255 32 0] 
r 0.438901653 _19_ RTR  --- 8 message 32 [0 ffffffff 9 800] ------- [9:255 -1:255 32 0] 
r 0.438901658 _14_ RTR  --- 8 message 32 [0 ffffffff 9 800] ------- [9:255 -1:255 32 0] 
r 0.438901660 _39_ RTR  --- 8 message 32 [0 ffffffff 9 800] ------- [9:255 -1:255 32 0] 
r 0.438901695 _16_ RTR  --- 8 message 32 [0 ffffffff 9 800] ------- [9:255 -1:255 32 0] 
r 0.438901723 _18_ RTR  --- 8 message 32 [0 ffffffff 9 800] ------- [9:255 -1:255 32 0] 
r 0.438901733 _11_ RTR  --- 8 message 32 [0 ffffffff 9 800] ------- [9:255 -1:255 32 0] 
r 0.438901797 _33_ RTR  --- 8 message 32 [0 ffffffff 9 800] ------- [9:255 -1:255 32 0] 
r 0.438901807 _31_ RTR  --- 8 message 32 [0 ffffffff 9 800] ------- [9:255 -1:255 32 0] 
r 0.438901840 _12_ RTR  --- 8 message 32 [0 ffffffff 9 800] ------- [9:255 -1:255 32 0] 
r 0.438901869 _24_ RTR  --- 8 message 32 [0 ffffffff 9 800] ------- [9:255 -1:255 32 0] 
s 0.486103729 _10_ RTR  --- 9 message 32 [0 0 0 0] ------- [10:255 -1:255 32 0] 
r 0.487143848 _11_ RTR  --- 9 message 32 [0 ffffffff a 800] ------- [10:255 -1:255 32 0] 
r 0.487143900 _32_ RTR  --- 9 message 32 [0 ffffffff a 800] ------- [10:255 -1:255 32 0] 
r 0.487143937 _16_ RTR  --- 9 message 32 [0 ffffffff a 800] ------- [10:255 -1:255 32 0] 
r 0.487143991 _12_ RTR  --- 9 message 32 [0 ffffffff a 800] ------- [10:255 -1:255 32 0] 
r 0.487144061 _7_ RTR  --- 9 message 32 [0 ffffffff a 800] ------- [10:255 -1:255 32 0] 
r 0.487144089 _28_ RTR  --- 9 message 32 [0 ffffffff a 800] ------- [10:255 -1:255 32 0] 
r 0.487144091 _36_ RTR  --- 9 message 32 [0 ffffffff a 800] ------- [10:255 -1:255 32 0] 
r 0.487144122 _31_ RTR  --- 9 message 32 [0 ffffffff a 800] ------- [10:255 -1:255 32 0] 
r 0.487144159 _15_ RTR  --- 9 message 32 [0 ffffffff a 800] ------- [10:255 -1:255 32 0] 
r 0.487144183 _24_ RTR  --- 9 message 32 [0 ffffffff a 800] ------- [10:255 -1:255 32 0] 
r 0.487144206 _37_ RTR  --- 9 message 32 [0 ffffffff a 800] ------- [10:255 -1:255 32 0] 
r 0.487144253 _27_ RTR  --- 9 message 32 [0 ffffffff a 800] ------- [10:255 -1:255 32 0] 
r 0.487144273 _13_ RTR  --- 9 message 32 [0 ffffffff a 800] ------- [10:255 -1:255 32 0] 
r 0.487144302 _22_ RTR  --- 9 message 32 [0 ffffffff a 800] ------- [10:255 -1:255 32 0] 
r 0.487144307 _9_ RTR  --- 9 message 32 [0 ffffffff a 800] ------- [10:255 -1:255 32 0] 
r 0.487144339 _2_ RTR  --- 9 message 32 [0 ffffffff a 800] ------- [10:255 -1:255 32 0] 
r 0.487144378 _1_ RTR  --- 9 message 32 [0 ffffffff a 800] ------- [10:255 -1:255 32 0] 
r 0.487144428 _0_ RTR  --- 9 message 32 [0 ffffffff a 800] ------- [10:255 -1:255 32 0] 
r 0.487144428 _39_ RTR  --- 9 message 32 [0 ffffffff a 800] ------- [10:255 -1:255 32 0] 
r 0.487144448 _30_ RTR  --- 9 message 32 [0 ffffffff a 800] ------- [10:255 -1:255 32 0] 
r 0.487144500 _4_ RTR  --- 9 message 32 [0 ffffffff a 800] ------- [10:255 -1:255 32 0] 
r 0.487144501 _35_ RTR  --- 9 message 32 [0 ffffffff a 800] ------- [10:255 -1:255 32 0] 
r 0.487144516 _33_ RTR  --- 9 message 32 [0 ffffffff a 800] ------- [10:255 -1:255 32 0] 
s 0.522800053 _29_ RTR  --- 10 message 32 [0 0 0 0] ------- [29:255 -1:255 32 0] 
r 0.524120089 _34_ RTR  --- 10 message 32 [0 ffffffff 1d 800] ------- [29:255 -1:255 32 0] 
r 0.524120394 _1_ RTR  --- 10 message 32 [0 ffffffff 1d 800] ------- [29:255 -1:255 32 0] 
r 0.524120402 _21_ RTR  --- 10 message 32 [0 ffffffff 1d 800] ------- [29:255 -1:255 32 0] 
r 0.524120427 _3_ RTR  --- 10 message 32 [0 ffffffff 1d 800] ------- [29:255 -1:255 32 0] 
r 0.524120462 _0_ RTR  --- 10 message 32 [0 ffffffff 1d 800] ------- [29:255 -1:255 32 0] 
r 0.524120479 _9_ RTR  --- 10 message 32 [0 ffffffff 1d 800] ------- [29:255 -1:255 32 0] 
r 0.524120480 _14_ RTR  --- 10 message 32 [0 ffffffff 1d 800] ------- [29:255 -1:255 32 0] 
r 0.524120554 _19_ RTR  --- 10 message 32 [0 ffffffff 1d 800] ------- [29:255 -1:255 32 0] 
r 0.524120673 _18_ RTR  --- 10 message 32 [0 ffffffff 1d 800] ------- [29:255 -1:255 32 0] 
r 0.524120683 _36_ RTR  --- 10 message 32 [0 ffffffff 1d 800] ------- [29:255 -1:255 32 0] 
r 0.524120706 _7_ RTR  --- 10 message 32 [0 ffffffff 1d 800] ------- [29:255 -1:255 32 0] 
r 0.524120729 _27_ RTR  --- 10 message 32 [0 ffffffff 1d 800] ------- [29:255 -1:255 32 0] 
r 0.524120737 _15_ RTR  --- 10 message 32 [0 ffffffff 1d 800] ------- [29:255 -1:255 32 0] 
r 0.524120745 _39_ RTR  --- 10 message 32 [0 ffffffff 1d 800] ------- [29:255 -1:255 32 0] 
r 0.524120860 _33_ RTR  --- 10 message 32 [0 ffffffff 1d 800] ------- [29:255 -1:255 32 0] 
r 0.524120871 _32_ RTR  --- 10 message 32 [0 ffffffff 1d 800] ------- [29:255 -1:255 32 0] 
s 0.524234216 _2_ RTR  --- 11 message 32 [0 0 0 0] ------- [2:255 -1:255 32 0] 
r 0.525515784 _30_ RTR  --- 11 message 32 [0 ffffffff 2 800] ------- [2:255 -1:255 32 0] 
r 0.525515852 _12_ RTR  --- 11 message 32 [0 ffffffff 2 800] ------- [2:255 -1:255 32 0] 
r 0.525515981 _28_ RTR  --- 11 message 32 [0 ffffffff 2 800] ------- [2:255 -1:255 32 0] 
r 0.525516000 _22_ RTR  --- 11 message 32 [0 ffffffff 2 800] ------- [2:255 -1:255 32 0] 
r 0.525516099 _10_ RTR  --- 11 message 32 [0 ffffffff 2 800] ------- [2:255 -1:255 32 0] 
r 0.525516113 _37_ RTR  --- 11 message 32 [0 ffffffff 2 800] ------- [2:255 -1:255 32 0] 
r 0.525516141 _11_ RTR  --- 11 message 32 [0 ffffffff 2 800] ------- [2:255 -1:255 32 0] 
r 0.525516186 _32_ RTR  --- 11 message 32 [0 ffffffff 2 800] ------- [2:255 -1:255 32 0] 
r 0.525516242 _15_ RTR  --- 11 message 32 [0 ffffffff 2 800] ------- [2:255 -1:255 32 0] 
r 0.525516282 _16_ RTR  --- 11 message 32 [0 ffffffff 2 800] ------- [2:255 -1:255 32 0] 
s 0.531200649 _33_ RTR  --- 12 message 32 [0 0 0 0] ------- [33:255 -1:255 32 0] 
r 0.532020786 _39_ RTR  --- 12 message 32 [0 ffffffff 21 800] ------- [33:255 -1:255 32 0] 
r 0.532020820 _25_ RTR  --- 12 message 32 [0 ffffffff 21 800] ------- [33:255 -1:255 32 0] 
r 0.532020880 _18_ RTR  --- 12 message 32 [0 ffffffff 21 800] ------- [33:255 -1:255 32 0] 
r 0.532020946 _27_ RTR  --- 12 message 32 [0 ffffffff 21 800] ------- [33:255 -1:255 32 0] 
r 0.532020976 _6_ RTR  --- 12 message 32 [0 ffffffff 21 800] ------- [33:255 -1:255 32 0] 
r 0.532020984 _20_ RTR  --- 12 message 32 [0 ffffffff 21 800] ------- [33:255 -1:255 32 0] 
r 0.532020992 _19_ RTR  --- 12 message 32 [0 ffffffff 21 800] ------- [33:255 -1:255 32 0] 
r 0.532021073 _0_ RTR  --- 12 message 32 [0 ffffffff 21 800] ------- [33:255 -1:255 32 0] 
r 0.532021100 _14_ RTR  --- 12 message 32 [0 ffffffff 21 800] ------- [33:255 -1:255 32 0] 
r 0.532021103 _3_ RTR  --- 12 message 32 [0 ffffffff 21 800] ------- [33:255 -1:255 32 0] 
r 0.532021111 _21_ RTR  --- 12 message 32 [0 ffffffff 21 800] ------- [33:255 -1:255 32 0] 
r 0.532021169 _31_ RTR  --- 12 message 32 [0 ffffffff 21 800] ------- [33:255 -1:255 32 0] 
r 0.532021170 _24_ RTR  --- 12 message 32 [0 ffffffff 21 800] ------- [33:255 -1:255 32 0] 
r 0.532021236 _17_ RTR  --- 12 message 32 [0 ffffffff 21 800] ------- [33:255 -1:255 32 0] 
r 0.532021266 _7_ RTR  --- 12 message 32 [0 ffffffff 21 800] ------- [33:255 -1:255 32 0] 
r 0.532021268 _26_ RTR  --- 12 message 32 [0 ffffffff 21 800] ------- [33:255 -1:255 32 0] 
r 0.532021271 _16_ RTR  --- 12 message 32 [0 ffffffff 21 800] ------- [33:255 -1:255 32 0] 
r 0.532021351 _1_ RTR  --- 12 message 32 [0 ffffffff 21 800] ------- [33:255 -1:255 32 0] 
r 0.532021351 _36_ RTR  --- 12 message 32 [0 ffffffff 21 800] ------- [33:255 -1:255 32 0] 
r 0.532021362 _35_ RTR  --- 12 message 32 [0 ffffffff 21 800] ------- [33:255 -1:255 32 0] 
r 0.532021383 _9_ RTR  --- 12 message 32 [0 ffffffff 21 800] ------- [33:255 -1:255 32 0] 
r 0.532021383 _32_ RTR  --- 12 message 32 [0 ffffffff 21 800] ------- [33:255 -1:255 32 0] 
r 0.532021391 _13_ RTR  --- 12 message 32 [0 ffffffff 21 800] ------- [33:255 -1:255 32 0] 
r 0.532021411 _38_ RTR  --- 12 message 32 [0 ffffffff 21 800] ------- [33:255 -1:255 32 0] 
r 0.532021412 _11_ RTR  --- 12 message 32 [0 ffffffff 21 800] ------- [33:255 -1:255 32 0] 
r 0.532021428 _34_ RTR  --- 12 message 32 [0 ffffffff 21 800] ------- [33:255 -1:255 32 0] 
r 0.532021436 _10_ RTR  --- 12 message 32 [0 ffffffff 21 800] ------- [33:255 -1:255 32 0] 
r 0.532021456 _29_ RTR  --- 12 message 32 [0 ffffffff 21 800] ------- [33:255 -1:255 32 0] 
s 0.659033143 _37_ RTR  --- 13 message 32 [0 0 0 0] ------- [37:255 -1:255 32 0] 
r 0.660273302 _28_ RTR  --- 13 message 32 [0 ffffffff 25 800] ------- [37:255 -1:255 32 0] 
r 0.660273330 _22_ RTR  --- 13 message 32 [0 ffffffff 25 800] ------- [37:255 -1:255 32 0] 
r 0.660273525 _4_ RTR  --- 13 message 32 [0 ffffffff 25 800] ------- [37:255 -1:255 32 0] 
r 0.660273530 _12_ RTR  --- 13 message 32 [0 ffffffff 25 800] ------- [37:255 -1:255 32 0] 
r 0.660273531 _11_ RTR  --- 13 message 32 [0 ffffffff 25 800] ------- [37:255 -1:255 32 0] 
r 0.660273549 _13_ RTR  --- 13 message 32 [0 ffffffff 25 800] ------- [37:255 -1:255 32 0] 
r 0.660273619 _10_ RTR  --- 13 message 32 [0 ffffffff 25 800] ------- [37:255 -1:255 32 0] 
r 0.660273620 _5_ RTR  --- 13 message 32 [0 ffffffff 25 800] ------- [37:255 -1:255 32 0] 
r 0.660273623 _16_ RTR  --- 13 message 32 [0 ffffffff 25 800] ------- [37:255 -1:255 32 0] 
r 0.660273639 _8_ RTR  --- 13 message 32 [0 ffffffff 25 800] ------- [37:255 -1:255 32 0] 
r 0.660273679 _31_ RTR  --- 13 message 32 [0 ffffffff 25 800] ------- [37:255 -1:255 32 0] 
r 0.660273689 _24_ RTR  --- 13 message 32 [0 ffffffff 25 800] ------- [37:255 -1:255 32 0] 
r 0.660273767 _2_ RTR  --- 13 message 32 [0 ffffffff 25 800] ------- [37:255 -1:255 32 0] 
r 0.660273789 _32_ RTR  --- 13 message 32 [0 ffffffff 25 800] ------- [37:255 -1:255 32 0] 
r 0.660273789 _35_ RTR  --- 13 message 32 [0 ffffffff 25 800] ------- [37:255 -1:255 32 0] 
r 0.660273802 _23_ RTR  --- 13 message 32 [0 ffffffff 25 800] ------- [37:255 -1:255 32 0] 
r 0.660273938 _7_ RTR  --- 13 message 32 [0 ffffffff 25 800] ------- [37:255 -1:255 32 0] 
s 0.680319663 _26_ RTR  --- 14 message 32 [0 0 0 0] ------- [26:255 -1:255 32 0] 
r 0.681399914 _38_ RTR  --- 14 message 32 [0 ffffffff 1a 800] ------- [26:255 -1:255 32 0] 
r 0.681400021 _35_ RTR  --- 14 message 32 [0 ffffffff 1a 800] ------- [26:255 -1:255 32 0] 
r 0.681400141 _25_ RTR  --- 14 message 32 [0 ffffffff 1a 800] ------- [26:255 -1:255 32 0] 
r 0.681400144 _17_ RTR  --- 14 message 32 [0 ffffffff 1a 800] ------- [26:255 -1:255 32 0] 
r 0.681400157 _6_ RTR  --- 14 message 32 [0 ffffffff 1a 800] ------- [26:255 -1:255 32 0] 
r 0.681400183 _20_ RTR  --- 14 message 32 [0 ffffffff 1a 800] ------- [26:255 -1:255 32 0] 
r 0.681400227 _24_ RTR  --- 14 message 32 [0 ffffffff 1a 800] ------- [26:255 -1:255 32 0] 
r 0.681400252 _13_ RTR  --- 14 message 32 [0 ffffffff 1a 800] ------- [26:255 -1:255 32 0] 
r 0.681400283 _33_ RTR  --- 14 message 32 [0 ffffffff 1a 800] ------- [26:255 -1:255 32 0] 
r 0.681400288 _31_ RTR  --- 14 message 32 [0 ffffffff 1a 800] ------- [26:255 -1:255 32 0] 
r 0.681400376 _8_ RTR  --- 14 message 32 [0 ffffffff 1a 800] ------- [26:255 -1:255 32 0] 
r 0.681400390 _39_ RTR  --- 14 message 32 [0 ffffffff 1a 800] ------- [26:255 -1:255 32 0] 
r 0.681400451 _27_ RTR  --- 14 message 32 [0 ffffffff 1a 800] ------- [26:255 -1:255 32 0] 
r 0.681400455 _4_ RTR  --- 14 message 32 [0 ffffffff 1a 800] ------- [26:255 -1:255 32 0] 
r 0.681400473 _16_ RTR  --- 14 message 32 [0 ffffffff 1a 800] ------- [26:255 -1:255 32 0] 
s 0.701556842 _1_ RTR  --- 15 message 32 [0 0 0 0] ------- [1:255 -1:255 32 0] 
r 0.702816932 _9_ RTR  --- 15 message 32 [0 ffffffff 1 800] ------- [1:255 -1:255 32 0] 
r 0.702817133 _36_ RTR  --- 15 message 32 [0 ffffffff 1 800] ------- [1:255 -1:255 32 0] 
r 0.702817139 _0_ RTR  --- 15 message 32 [0 ffffffff 1 800] ------- [1:255 -1:255 32 0] 
r 0.702817150 _34_ RTR  --- 15 message 32 [0 ffffffff 1 800] ------- [1:255 -1:255 32 0] 
r 0.702817168 _7_ RTR  --- 15 message 32 [0 ffffffff 1 800] ------- [1:255 -1:255 32 0] 
r 0.702817182 _29_ RTR  --- 15 message 32 [0 ffffffff 1 800] ------- [1:255 -1:255 32 0] 
r 0.702817201 _15_ RTR  --- 15 message 32 [0 ffffffff 1 800] ------- [1:255 -1:255 32 0] 
r 0.702817218 _21_ RTR  --- 15 message 32 [0 ffffffff 1 800] ------- [1:255 -1:255 32 0] 
r 0.702817274 _3_ RTR  --- 15 message 32 [0 ffffffff 1 800] ------- [1:255 -1:255 32 0] 
r 0.702817307 _27_ RTR  --- 15 message 32 [0 ffffffff 1 800] ------- [1:255 -1:255 32 0] 
r 0.702817322 _32_ RTR  --- 15 message 32 [0 ffffffff 1 800] ------- [1:255 -1:255 32 0] 
r 0.702817359 _14_ RTR  --- 15 message 32 [0 ffffffff 1 800] ------- [1:255 -1:255 32 0] 
r 0.702817364 _19_ RTR  --- 15 message 32 [0 ffffffff 1 800] ------- [1:255 -1:255 32 0] 
r 0.702817407 _39_ RTR  --- 15 message 32 [0 ffffffff 1 800] ------- [1:255 -1:255 32 0] 