+ 0.1 0 3 tcp 40 ------- 1 0.0 5.0 0 0
- 0.1 0 3 tcp 40 ------- 1 0.0 5.0 0 0
r 0.110021 0 3 tcp 40 ------- 1 0.0 5.0 0 0
+ 0.110021 3 4 tcp 40 ------- 1 0.0 5.0 0 0
- 0.110021 3 4 tcp 40 ------- 1 0.0 5.0 0 0
r 0.140341 3 4 tcp 40 ------- 1 0.0 5.0 0 0
+ 0.140341 4 5 tcp 40 ------- 1 0.0 5.0 0 0
- 0.140341 4 5 tcp 40 ------- 1 0.0 5.0 0 0
r 0.170363 4 5 tcp 40 ------- 1 0.0 5.0 0 0
+ 0.170363 5 4 ack 40 ------- 1 5.0 0.0 0 1
- 0.170363 5 4 ack 40 ------- 1 5.0 0.0 0 1
r 0.200384 5 4 ack 40 ------- 1 5.0 0.0 0 1
+ 0.200384 4 3 ack 40 ------- 1 5.0 0.0 0 1
- 0.200384 4 3 ack 40 ------- 1 5.0 0.0 0 1
r 0.230704 4 3 ack 40 ------- 1 5.0 0.0 0 1
+ 0.230704 3 0 ack 40 ------- 1 5.0 0.0 0 1
- 0.230704 3 0 ack 40 ------- 1 5.0 0.0 0 1
r 0.240725 3 0 ack 40 ------- 1 5.0 0.0 0 1
+ 0.240725 0 3 tcp 1040 ------- 1 0.0 5.0 1 2
- 0.240725 0 3 tcp 1040 ------- 1 0.0 5.0 1 2
+ 0.240725 0 3 tcp 1040 ------- 1 0.0 5.0 2 3
- 0.24128 0 3 tcp 1040 ------- 1 0.0 5.0 2 3
r 0.25128 0 3 tcp 1040 ------- 1 0.0 5.0 1 2
+ 0.25128 3 4 tcp 1040 ------- 1 0.0 5.0 1 2
- 0.25128 3 4 tcp 1040 ------- 1 0.0 5.0 1 2
r 0.251835 0 3 tcp 1040 ------- 1 0.0 5.0 2 3
+ 0.251835 3 4 tcp 1040 ------- 1 0.0 5.0 2 3
- 0.2596 3 4 tcp 1040 ------- 1 0.0 5.0 2 3
r 0.2896 3 4 tcp 1040 ------- 1 0.0 5.0 1 2
+ 0.2896 4 5 tcp 1040 ------- 1 0.0 5.0 1 2
- 0.2896 4 5 tcp 1040 ------- 1 0.0 5.0 1 2
r 0.29792 3 4 tcp 1040 ------- 1 0.0 5.0 2 3
+ 0.29792 4 5 tcp 1040 ------- 1 0.0 5.0 2 3
- 0.29792 4 5 tcp 1040 ------- 1 0.0 5.0 2 3
r 0.320155 4 5 tcp 1040 ------- 1 0.0 5.0 1 2
+ 0.320155 5 4 ack 40 ------- 1 5.0 0.0 1 4
- 0.320155 5 4 ack 40 ------- 1 5.0 0.0 1 4
r 0.328475 4 5 tcp 1040 ------- 1 0.0 5.0 2 3
+ 0.328475 5 4 ack 40 ------- 1 5.0 0.0 2 5
- 0.328475 5 4 ack 40 ------- 1 5.0 0.0 2 5
r 0.350176 5 4 ack 40 ------- 1 5.0 0.0 1 4
+ 0.350176 4 3 ack 40 ------- 1 5.0 0.0 1 4
- 0.350176 4 3 ack 40 ------- 1 5.0 0.0 1 4
r 0.358496 5 4 ack 40 ------- 1 5.0 0.0 2 5
+ 0.358496 4 3 ack 40 ------- 1 5.0 0.0 2 5
- 0.358496 4 3 ack 40 ------- 1 5.0 0.0 2 5
r 0.380496 4 3 ack 40 ------- 1 5.0 0.0 1 4
+ 0.380496 3 0 ack 40 ------- 1 5.0 0.0 1 4
- 0.380496 3 0 ack 40 ------- 1 5.0 0.0 1 4
r 0.388816 4 3 ack 40 ------- 1 5.0 0.0 2 5
+ 0.388816 3 0 ack 40 ------- 1 5.0 0.0 2 5
- 0.388816 3 0 ack 40 ------- 1 5.0 0.0 2 5
r 0.390517 3 0 ack 40 ------- 1 5.0 0.0 1 4
+ 0.390517 0 3 tcp 1040 ------- 1 0.0 5.0 3 6
- 0.390517 0 3 tcp 1040 ------- 1 0.0 5.0 3 6
+ 0.390517 0 3 tcp 1040 ------- 1 0.0 5.0 4 7
- 0.391072 0 3 tcp 1040 ------- 1 0.0 5.0 4 7
r 0.398837 3 0 ack 40 ------- 1 5.0 0.0 2 5
+ 0.398837 0 3 tcp 1040 ------- 1 0.0 5.0 5 8
- 0.398837 0 3 tcp 1040 ------- 1 0.0 5.0 5 8
+ 0.398837 0 3 tcp 1040 ------- 1 0.0 5.0 6 9
- 0.399392 0 3 tcp 1040 ------- 1 0.0 5.0 6 9
r 0.401072 0 3 tcp 1040 ------- 1 0.0 5.0 3 6
+ 0.401072 3 4 tcp 1040 ------- 1 0.0 5.0 3 6
- 0.401072 3 4 tcp 1040 ------- 1 0.0 5.0 3 6
r 0.401627 0 3 tcp 1040 ------- 1 0.0 5.0 4 7
+ 0.401627 3 4 tcp 1040 ------- 1 0.0 5.0 4 7
r 0.409392 0 3 tcp 1040 ------- 1 0.0 5.0 5 8
+ 0.409392 3 4 tcp 1040 ------- 1 0.0 5.0 5 8
- 0.409392 3 4 tcp 1040 ------- 1 0.0 5.0 4 7
r 0.409947 0 3 tcp 1040 ------- 1 0.0 5.0 6 9
+ 0.409947 3 4 tcp 1040 ------- 1 0.0 5.0 6 9
- 0.417712 3 4 tcp 1040 ------- 1 0.0 5.0 5 8
- 0.426032 3 4 tcp 1040 ------- 1 0.0 5.0 6 9
r 0.439392 3 4 tcp 1040 ------- 1 0.0 5.0 3 6
+ 0.439392 4 5 tcp 1040 ------- 1 0.0 5.0 3 6
- 0.439392 4 5 tcp 1040 ------- 1 0.0 5.0 3 6
r 0.447712 3 4 tcp 1040 ------- 1 0.0 5.0 4 7
+ 0.447712 4 5 tcp 1040 ------- 1 0.0 5.0 4 7
- 0.447712 4 5 tcp 1040 ------- 1 0.0 5.0 4 7
r 0.456032 3 4 tcp 1040 ------- 1 0.0 5.0 5 8
+ 0.456032 4 5 tcp 1040 ------- 1 0.0 5.0 5 8
- 0.456032 4 5 tcp 1040 ------- 1 0.0 5.0 5 8
r 0.464352 3 4 tcp 1040 ------- 1 0.0 5.0 6 9
+ 0.464352 4 5 tcp 1040 ------- 1 0.0 5.0 6 9
- 0.464352 4 5 tcp 1040 ------- 1 0.0 5.0 6 9
r 0.469947 4 5 tcp 1040 ------- 1 0.0 5.0 3 6
+ 0.469947 5 4 ack 40 ------- 1 5.0 0.0 3 10
- 0.469947 5 4 ack 40 ------- 1 5.0 0.0 3 10
r 0.478267 4 5 tcp 1040 ------- 1 0.0 5.0 4 7
+ 0.478267 5 4 ack 40 ------- 1 5.0 0.0 4 11
- 0.478267 5 4 ack 40 ------- 1 5.0 0.0 4 11
r 0.486587 4 5 tcp 1040 ------- 1 0.0 5.0 5 8
+ 0.486587 5 4 ack 40 ------- 1 5.0 0.0 5 12
- 0.486587 5 4 ack 40 ------- 1 5.0 0.0 5 12
r 0.494907 4 5 tcp 1040 ------- 1 0.0 5.0 6 9
+ 0.494907 5 4 ack 40 ------- 1 5.0 0.0 6 13
- 0.494907 5 4 ack 40 ------- 1 5.0 0.0 6 13
r 0.499968 5 4 ack 40 ------- 1 5.0 0.0 3 10
+ 0.499968 4 3 ack 40 ------- 1 5.0 0.0 3 10
- 0.499968 4 3 ack 40 ------- 1 5.0 0.0 3 10
+ 0.5 1 3 tcp 40 ------- 2 1.0 6.0 0 14
- 0.5 1 3 tcp 40 ------- 2 1.0 6.0 0 14
r 0.508288 5 4 ack 40 ------- 1 5.0 0.0 4 11
+ 0.508288 4 3 ack 40 ------- 1 5.0 0.0 4 11
- 0.508288 4 3 ack 40 ------- 1 5.0 0.0 4 11
r 0.510021 1 3 tcp 40 ------- 2 1.0 6.0 0 14
+ 0.510021 3 4 tcp 40 ------- 2 1.0 6.0 0 14
- 0.510021 3 4 tcp 40 ------- 2 1.0 6.0 0 14
r 0.516608 5 4 ack 40 ------- 1 5.0 0.0 5 12
+ 0.516608 4 3 ack 40 ------- 1 5.0 0.0 5 12
- 0.516608 4 3 ack 40 ------- 1 5.0 0.0 5 12
r 0.524928 5 4 ack 40 ------- 1 5.0 0.0 6 13
+ 0.524928 4 3 ack 40 ------- 1 5.0 0.0 6 13
- 0.524928 4 3 ack 40 ------- 1 5.0 0.0 6 13
r 0.530288 4 3 ack 40 ------- 1 5.0 0.0 3 10
+ 0.530288 3 0 ack 40 ------- 1 5.0 0.0 3 10
- 0.530288 3 0 ack 40 ------- 1 5.0 0.0 3 10
r 0.538608 4 3 ack 40 ------- 1 5.0 0.0 4 11
+ 0.538608 3 0 ack 40 ------- 1 5.0 0.0 4 11
- 0.538608 3 0 ack 40 ------- 1 5.0 0.0 4 11
r 0.540309 3 0 ack 40 ------- 1 5.0 0.0 3 10
+ 0.540309 0 3 tcp 1040 ------- 1 0.0 5.0 7 15
- 0.540309 0 3 tcp 1040 ------- 1 0.0 5.0 7 15
+ 0.540309 0 3 tcp 1040 ------- 1 0.0 5.0 8 16
r 0.540341 3 4 tcp 40 ------- 2 1.0 6.0 0 14
+ 0.540341 4 6 tcp 40 ------- 2 1.0 6.0 0 14
- 0.540341 4 6 tcp 40 ------- 2 1.0 6.0 0 14
- 0.540864 0 3 tcp 1040 ------- 1 0.0 5.0 8 16
r 0.546928 4 3 ack 40 ------- 1 5.0 0.0 5 12
+ 0.546928 3 0 ack 40 ------- 1 5.0 0.0 5 12
- 0.546928 3 0 ack 40 ------- 1 5.0 0.0 5 12
r 0.548629 3 0 ack 40 ------- 1 5.0 0.0 4 11
+ 0.548629 0 3 tcp 1040 ------- 1 0.0 5.0 9 17
- 0.548629 0 3 tcp 1040 ------- 1 0.0 5.0 9 17
+ 0.548629 0 3 tcp 1040 ------- 1 0.0 5.0 10 18
- 0.549184 0 3 tcp 1040 ------- 1 0.0 5.0 10 18
r 0.550864 0 3 tcp 1040 ------- 1 0.0 5.0 7 15
+ 0.550864 3 4 tcp 1040 ------- 1 0.0 5.0 7 15
- 0.550864 3 4 tcp 1040 ------- 1 0.0 5.0 7 15
r 0.551419 0 3 tcp 1040 ------- 1 0.0 5.0 8 16
+ 0.551419 3 4 tcp 1040 ------- 1 0.0 5.0 8 16
r 0.555248 4 3 ack 40 ------- 1 5.0 0.0 6 13
+ 0.555248 3 0 ack 40 ------- 1 5.0 0.0 6 13
- 0.555248 3 0 ack 40 ------- 1 5.0 0.0 6 13
r 0.556949 3 0 ack 40 ------- 1 5.0 0.0 5 12
+ 0.556949 0 3 tcp 1040 ------- 1 0.0 5.0 11 19
- 0.556949 0 3 tcp 1040 ------- 1 0.0 5.0 11 19
+ 0.556949 0 3 tcp 1040 ------- 1 0.0 5.0 12 20
- 0.557504 0 3 tcp 1040 ------- 1 0.0 5.0 12 20
r 0.559184 0 3 tcp 1040 ------- 1 0.0 5.0 9 17
+ 0.559184 3 4 tcp 1040 ------- 1 0.0 5.0 9 17
- 0.559184 3 4 tcp 1040 ------- 1 0.0 5.0 8 16
r 0.559739 0 3 tcp 1040 ------- 1 0.0 5.0 10 18
+ 0.559739 3 4 tcp 1040 ------- 1 0.0 5.0 10 18
r 0.565269 3 0 ack 40 ------- 1 5.0 0.0 6 13
+ 0.565269 0 3 tcp 1040 ------- 1 0.0 5.0 13 21
- 0.565269 0 3 tcp 1040 ------- 1 0.0 5.0 13 21
+ 0.565269 0 3 tcp 1040 ------- 1 0.0 5.0 14 22
- 0.565824 0 3 tcp 1040 ------- 1 0.0 5.0 14 22
r 0.567504 0 3 tcp 1040 ------- 1 0.0 5.0 11 19
+ 0.567504 3 4 tcp 1040 ------- 1 0.0 5.0 11 19
- 0.567504 3 4 tcp 1040 ------- 1 0.0 5.0 9 17
r 0.568059 0 3 tcp 1040 ------- 1 0.0 5.0 12 20
+ 0.568059 3 4 tcp 1040 ------- 1 0.0 5.0 12 20
r 0.570363 4 6 tcp 40 ------- 2 1.0 6.0 0 14
+ 0.570363 6 4 ack 40 ------- 2 6.0 1.0 0 23
- 0.570363 6 4 ack 40 ------- 2 6.0 1.0 0 23
r 0.575824 0 3 tcp 1040 ------- 1 0.0 5.0 13 21
+ 0.575824 3 4 tcp 1040 ------- 1 0.0 5.0 13 21
- 0.575824 3 4 tcp 1040 ------- 1 0.0 5.0 10 18
r 0.576379 0 3 tcp 1040 ------- 1 0.0 5.0 14 22
+ 0.576379 3 4 tcp 1040 ------- 1 0.0 5.0 14 22
- 0.584144 3 4 tcp 1040 ------- 1 0.0 5.0 11 19
r 0.589184 3 4 tcp 1040 ------- 1 0.0 5.0 7 15
+ 0.589184 4 5 tcp 1040 ------- 1 0.0 5.0 7 15
- 0.589184 4 5 tcp 1040 ------- 1 0.0 5.0 7 15
- 0.592464 3 4 tcp 1040 ------- 1 0.0 5.0 12 20
r 0.597504 3 4 tcp 1040 ------- 1 0.0 5.0 8 16
+ 0.597504 4 5 tcp 1040 ------- 1 0.0 5.0 8 16
- 0.597504 4 5 tcp 1040 ------- 1 0.0 5.0 8 16
r 0.600384 6 4 ack 40 ------- 2 6.0 1.0 0 23
+ 0.600384 4 3 ack 40 ------- 2 6.0 1.0 0 23
- 0.600384 4 3 ack 40 ------- 2 6.0 1.0 0 23
- 0.600784 3 4 tcp 1040 ------- 1 0.0 5.0 13 21
r 0.605824 3 4 tcp 1040 ------- 1 0.0 5.0 9 17
+ 0.605824 4 5 tcp 1040 ------- 1 0.0 5.0 9 17
- 0.605824 4 5 tcp 1040 ------- 1 0.0 5.0 9 17
- 0.609104 3 4 tcp 1040 ------- 1 0.0 5.0 14 22
r 0.614144 3 4 tcp 1040 ------- 1 0.0 5.0 10 18
+ 0.614144 4 5 tcp 1040 ------- 1 0.0 5.0 10 18
- 0.614144 4 5 tcp 1040 ------- 1 0.0 5.0 10 18
r 0.619739 4 5 tcp 1040 ------- 1 0.0 5.0 7 15
+ 0.619739 5 4 ack 40 ------- 1 5.0 0.0 7 24
- 0.619739 5 4 ack 40 ------- 1 5.0 0.0 7 24
r 0.622464 3 4 tcp 1040 ------- 1 0.0 5.0 11 19
+ 0.622464 4 5 tcp 1040 ------- 1 0.0 5.0 11 19
- 0.622464 4 5 tcp 1040 ------- 1 0.0 5.0 11 19
r 0.628059 4 5 tcp 1040 ------- 1 0.0 5.0 8 16
+ 0.628059 5 4 ack 40 ------- 1 5.0 0.0 8 25
- 0.628059 5 4 ack 40 ------- 1 5.0 0.0 8 25
r 0.630704 4 3 ack 40 ------- 2 6.0 1.0 0 23
+ 0.630704 3 1 ack 40 ------- 2 6.0 1.0 0 23
- 0.630704 3 1 ack 40 ------- 2 6.0 1.0 0 23
r 0.630784 3 4 tcp 1040 ------- 1 0.0 5.0 12 20
+ 0.630784 4 5 tcp 1040 ------- 1 0.0 5.0 12 20
- 0.630784 4 5 tcp 1040 ------- 1 0.0 5.0 12 20
r 0.636379 4 5 tcp 1040 ------- 1 0.0 5.0 9 17
+ 0.636379 5 4 ack 40 ------- 1 5.0 0.0 9 26
- 0.636379 5 4 ack 40 ------- 1 5.0 0.0 9 26
r 0.639104 3 4 tcp 1040 ------- 1 0.0 5.0 13 21
+ 0.639104 4 5 tcp 1040 ------- 1 0.0 5.0 13 21
- 0.639104 4 5 tcp 1040 ------- 1 0.0 5.0 13 21
r 0.640725 3 1 ack 40 ------- 2 6.0 1.0 0 23
+ 0.640725 1 3 tcp 1040 ------- 2 1.0 6.0 1 27
- 0.640725 1 3 tcp 1040 ------- 2 1.0 6.0 1 27
+ 0.640725 1 3 tcp 1040 ------- 2 1.0 6.0 2 28
- 0.64128 1 3 tcp 1040 ------- 2 1.0 6.0 2 28
r 0.644699 4 5 tcp 1040 ------- 1 0.0 5.0 10 18
+ 0.644699 5 4 ack 40 ------- 1 5.0 0.0 10 29
- 0.644699 5 4 ack 40 ------- 1 5.0 0.0 10 29
r 0.647424 3 4 tcp 1040 ------- 1 0.0 5.0 14 22
+ 0.647424 4 5 tcp 1040 ------- 1 0.0 5.0 14 22
- 0.647424 4 5 tcp 1040 ------- 1 0.0 5.0 14 22
r 0.64976 5 4 ack 40 ------- 1 5.0 0.0 7 24
+ 0.64976 4 3 ack 40 ------- 1 5.0 0.0 7 24
- 0.64976 4 3 ack 40 ------- 1 5.0 0.0 7 24
r 0.65128 1 3 tcp 1040 ------- 2 1.0 6.0 1 27
+ 0.65128 3 4 tcp 1040 ------- 2 1.0 6.0 1 27
- 0.65128 3 4 tcp 1040 ------- 2 1.0 6.0 1 27
r 0.651835 1 3 tcp 1040 ------- 2 1.0 6.0 2 28
+ 0.651835 3 4 tcp 1040 ------- 2 1.0 6.0 2 28
r 0.653019 4 5 tcp 1040 ------- 1 0.0 5.0 11 19
+ 0.653019 5 4 ack 40 ------- 1 5.0 0.0 11 30
- 0.653019 5 4 ack 40 ------- 1 5.0 0.0 11 30
r 0.65808 5 4 ack 40 ------- 1 5.0 0.0 8 25
+ 0.65808 4 3 ack 40 ------- 1 5.0 0.0 8 25
- 0.65808 4 3 ack 40 ------- 1 5.0 0.0 8 25
- 0.6596 3 4 tcp 1040 ------- 2 1.0 6.0 2 28
r 0.661339 4 5 tcp 1040 ------- 1 0.0 5.0 12 20
+ 0.661339 5 4 ack 40 ------- 1 5.0 0.0 12 31
- 0.661339 5 4 ack 40 ------- 1 5.0 0.0 12 31
r 0.6664 5 4 ack 40 ------- 1 5.0 0.0 9 26
+ 0.6664 4 3 ack 40 ------- 1 5.0 0.0 9 26
- 0.6664 4 3 ack 40 ------- 1 5.0 0.0 9 26
r 0.669659 4 5 tcp 1040 ------- 1 0.0 5.0 13 21
+ 0.669659 5 4 ack 40 ------- 1 5.0 0.0 13 32
- 0.669659 5 4 ack 40 ------- 1 5.0 0.0 13 32
r 0.67472 5 4 ack 40 ------- 1 5.0 0.0 10 29
+ 0.67472 4 3 ack 40 ------- 1 5.0 0.0 10 29
- 0.67472 4 3 ack 40 ------- 1 5.0 0.0 10 29
r 0.677979 4 5 tcp 1040 ------- 1 0.0 5.0 14 22
+ 0.677979 5 4 ack 40 ------- 1 5.0 0.0 14 33
- 0.677979 5 4 ack 40 ------- 1 5.0 0.0 14 33
r 0.68008 4 3 ack 40 ------- 1 5.0 0.0 7 24
+ 0.68008 3 0 ack 40 ------- 1 5.0 0.0 7 24
- 0.68008 3 0 ack 40 ------- 1 5.0 0.0 7 24
r 0.68304 5 4 ack 40 ------- 1 5.0 0.0 11 30
+ 0.68304 4 3 ack 40 ------- 1 5.0 0.0 11 30
- 0.68304 4 3 ack 40 ------- 1 5.0 0.0 11 30
r 0.6884 4 3 ack 40 ------- 1 5.0 0.0 8 25
+ 0.6884 3 0 ack 40 ------- 1 5.0 0.0 8 25
- 0.6884 3 0 ack 40 ------- 1 5.0 0.0 8 25
r 0.6896 3 4 tcp 1040 ------- 2 1.0 6.0 1 27
+ 0.6896 4 6 tcp 1040 ------- 2 1.0 6.0 1 27
- 0.6896 4 6 tcp 1040 ------- 2 1.0 6.0 1 27
r 0.690101 3 0 ack 40 ------- 1 5.0 0.0 7 24
+ 0.690101 0 3 tcp 1040 ------- 1 0.0 5.0 15 34
- 0.690101 0 3 tcp 1040 ------- 1 0.0 5.0 15 34
+ 0.690101 0 3 tcp 1040 ------- 1 0.0 5.0 16 35
- 0.690656 0 3 tcp 1040 ------- 1 0.0 5.0 16 35
r 0.69136 5 4 ack 40 ------- 1 5.0 0.0 12 31
+ 0.69136 4 3 ack 40 ------- 1 5.0 0.0 12 31
- 0.69136 4 3 ack 40 ------- 1 5.0 0.0 12 31
r 0.69672 4 3 ack 40 ------- 1 5.0 0.0 9 26
+ 0.69672 3 0 ack 40 ------- 1 5.0 0.0 9 26
- 0.69672 3 0 ack 40 ------- 1 5.0 0.0 9 26
r 0.69792 3 4 tcp 1040 ------- 2 1.0 6.0 2 28
+ 0.69792 4 6 tcp 1040 ------- 2 1.0 6.0 2 28
- 0.69792 4 6 tcp 1040 ------- 2 1.0 6.0 2 28
r 0.698421 3 0 ack 40 ------- 1 5.0 0.0 8 25
+ 0.698421 0 3 tcp 1040 ------- 1 0.0 5.0 17 36
- 0.698421 0 3 tcp 1040 ------- 1 0.0 5.0 17 36
+ 0.698421 0 3 tcp 1040 ------- 1 0.0 5.0 18 37
- 0.698976 0 3 tcp 1040 ------- 1 0.0 5.0 18 37
r 0.69968 5 4 ack 40 ------- 1 5.0 0.0 13 32
+ 0.69968 4 3 ack 40 ------- 1 5.0 0.0 13 32
- 0.69968 4 3 ack 40 ------- 1 5.0 0.0 13 32
r 0.700656 0 3 tcp 1040 ------- 1 0.0 5.0 15 34
+ 0.700656 3 4 tcp 1040 ------- 1 0.0 5.0 15 34
- 0.700656 3 4 tcp 1040 ------- 1 0.0 5.0 15 34
r 0.701211 0 3 tcp 1040 ------- 1 0.0 5.0 16 35
+ 0.701211 3 4 tcp 1040 ------- 1 0.0 5.0 16 35
r 0.70504 4 3 ack 40 ------- 1 5.0 0.0 10 29
+ 0.70504 3 0 ack 40 ------- 1 5.0 0.0 10 29
- 0.70504 3 0 ack 40 ------- 1 5.0 0.0 10 29
r 0.706741 3 0 ack 40 ------- 1 5.0 0.0 9 26
+ 0.706741 0 3 tcp 1040 ------- 1 0.0 5.0 19 38
- 0.706741 0 3 tcp 1040 ------- 1 0.0 5.0 19 38
+ 0.706741 0 3 tcp 1040 ------- 1 0.0 5.0 20 39
- 0.707296 0 3 tcp 1040 ------- 1 0.0 5.0 20 39
r 0.708 5 4 ack 40 ------- 1 5.0 0.0 14 33
+ 0.708 4 3 ack 40 ------- 1 5.0 0.0 14 33
- 0.708 4 3 ack 40 ------- 1 5.0 0.0 14 33
r 0.708976 0 3 tcp 1040 ------- 1 0.0 5.0 17 36
+ 0.708976 3 4 tcp 1040 ------- 1 0.0 5.0 17 36
- 0.708976 3 4 tcp 1040 ------- 1 0.0 5.0 16 35
r 0.709531 0 3 tcp 1040 ------- 1 0.0 5.0 18 37
+ 0.709531 3 4 tcp 1040 ------- 1 0.0 5.0 18 37
r 0.71336 4 3 ack 40 ------- 1 5.0 0.0 11 30
+ 0.71336 3 0 ack 40 ------- 1 5.0 0.0 11 30
- 0.71336 3 0 ack 40 ------- 1 5.0 0.0 11 30
r 0.715061 3 0 ack 40 ------- 1 5.0 0.0 10 29
+ 0.715061 0 3 tcp 1040 ------- 1 0.0 5.0 21 40
- 0.715061 0 3 tcp 1040 ------- 1 0.0 5.0 21 40
+ 0.715061 0 3 tcp 1040 ------- 1 0.0 5.0 22 41
- 0.715616 0 3 tcp 1040 ------- 1 0.0 5.0 22 41
r 0.717296 0 3 tcp 1040 ------- 1 0.0 5.0 19 38
+ 0.717296 3 4 tcp 1040 ------- 1 0.0 5.0 19 38
- 0.717296 3 4 tcp 1040 ------- 1 0.0 5.0 17 36
r 0.717851 0 3 tcp 1040 ------- 1 0.0 5.0 20 39
+ 0.717851 3 4 tcp 1040 ------- 1 0.0 5.0 20 39
r 0.720155 4 6 tcp 1040 ------- 2 1.0 6.0 1 27
+ 0.720155 6 4 ack 40 ------- 2 6.0 1.0 1 42
- 0.720155 6 4 ack 40 ------- 2 6.0 1.0 1 42
r 0.72168 4 3 ack 40 ------- 1 5.0 0.0 12 31
+ 0.72168 3 0 ack 40 ------- 1 5.0 0.0 12 31
- 0.72168 3 0 ack 40 ------- 1 5.0 0.0 12 31
r 0.723381 3 0 ack 40 ------- 1 5.0 0.0 11 30
+ 0.723381 0 3 tcp 1040 ------- 1 0.0 5.0 23 43
- 0.723381 0 3 tcp 1040 ------- 1 0.0 5.0 23 43
+ 0.723381 0 3 tcp 1040 ------- 1 0.0 5.0 24 44
- 0.723936 0 3 tcp 1040 ------- 1 0.0 5.0 24 44
r 0.725616 0 3 tcp 1040 ------- 1 0.0 5.0 21 40
+ 0.725616 3 4 tcp 1040 ------- 1 0.0 5.0 21 40
- 0.725616 3 4 tcp 1040 ------- 1 0.0 5.0 18 37
r 0.726171 0 3 tcp 1040 ------- 1 0.0 5.0 22 41
+ 0.726171 3 4 tcp 1040 ------- 1 0.0 5.0 22 41
r 0.728475 4 6 tcp 1040 ------- 2 1.0 6.0 2 28
+ 0.728475 6 4 ack 40 ------- 2 6.0 1.0 2 45
- 0.728475 6 4 ack 40 ------- 2 6.0 1.0 2 45
r 0.73 4 3 ack 40 ------- 1 5.0 0.0 13 32
+ 0.73 3 0 ack 40 ------- 1 5.0 0.0 13 32
- 0.73 3 0 ack 40 ------- 1 5.0 0.0 13 32
r 0.731701 3 0 ack 40 ------- 1 5.0 0.0 12 31
+ 0.731701 0 3 tcp 1040 ------- 1 0.0 5.0 25 46
- 0.731701 0 3 tcp 1040 ------- 1 0.0 5.0 25 46
+ 0.731701 0 3 tcp 1040 ------- 1 0.0 5.0 26 47
- 0.732256 0 3 tcp 1040 ------- 1 0.0 5.0 26 47
r 0.733936 0 3 tcp 1040 ------- 1 0.0 5.0 23 43
+ 0.733936 3 4 tcp 1040 ------- 1 0.0 5.0 23 43
- 0.733936 3 4 tcp 1040 ------- 1 0.0 5.0 19 38
r 0.734491 0 3 tcp 1040 ------- 1 0.0 5.0 24 44
+ 0.734491 3 4 tcp 1040 ------- 1 0.0 5.0 24 44
r 0.73832 4 3 ack 40 ------- 1 5.0 0.0 14 33
+ 0.73832 3 0 ack 40 ------- 1 5.0 0.0 14 33
- 0.73832 3 0 ack 40 ------- 1 5.0 0.0 14 33
r 0.738976 3 4 tcp 1040 ------- 1 0.0 5.0 15 34
+ 0.738976 4 5 tcp 1040 ------- 1 0.0 5.0 15 34
- 0.738976 4 5 tcp 1040 ------- 1 0.0 5.0 15 34
r 0.740021 3 0 ack 40 ------- 1 5.0 0.0 13 32
+ 0.740021 0 3 tcp 1040 ------- 1 0.0 5.0 27 48
- 0.740021 0 3 tcp 1040 ------- 1 0.0 5.0 27 48
+ 0.740021 0 3 tcp 1040 ------- 1 0.0 5.0 28 49
- 0.740576 0 3 tcp 1040 ------- 1 0.0 5.0 28 49
r 0.742256 0 3 tcp 1040 ------- 1 0.0 5.0 25 46
+ 0.742256 3 4 tcp 1040 ------- 1 0.0 5.0 25 46
- 0.742256 3 4 tcp 1040 ------- 1 0.0 5.0 20 39
r 0.742811 0 3 tcp 1040 ------- 1 0.0 5.0 26 47
+ 0.742811 3 4 tcp 1040 ------- 1 0.0 5.0 26 47
r 0.747296 3 4 tcp 1040 ------- 1 0.0 5.0 16 35
+ 0.747296 4 5 tcp 1040 ------- 1 0.0 5.0 16 35
- 0.747296 4 5 tcp 1040 ------- 1 0.0 5.0 16 35
r 0.748341 3 0 ack 40 ------- 1 5.0 0.0 14 33
+ 0.748341 0 3 tcp 1040 ------- 1 0.0 5.0 29 50
- 0.748341 0 3 tcp 1040 ------- 1 0.0 5.0 29 50
+ 0.748341 0 3 tcp 1040 ------- 1 0.0 5.0 30 51
- 0.748896 0 3 tcp 1040 ------- 1 0.0 5.0 30 51
r 0.750176 6 4 ack 40 ------- 2 6.0 1.0 1 42
+ 0.750176 4 3 ack 40 ------- 2 6.0 1.0 1 42
- 0.750176 4 3 ack 40 ------- 2 6.0 1.0 1 42
r 0.750576 0 3 tcp 1040 ------- 1 0.0 5.0 27 48
+ 0.750576 3 4 tcp 1040 ------- 1 0.0 5.0 27 48
- 0.750576 3 4 tcp 1040 ------- 1 0.0 5.0 21 40
r 0.751131 0 3 tcp 1040 ------- 1 0.0 5.0 28 49
+ 0.751131 3 4 tcp 1040 ------- 1 0.0 5.0 28 49
r 0.755616 3 4 tcp 1040 ------- 1 0.0 5.0 17 36
+ 0.755616 4 5 tcp 1040 ------- 1 0.0 5.0 17 36
- 0.755616 4 5 tcp 1040 ------- 1 0.0 5.0 17 36
r 0.758496 6 4 ack 40 ------- 2 6.0 1.0 2 45
+ 0.758496 4 3 ack 40 ------- 2 6.0 1.0 2 45
- 0.758496 4 3 ack 40 ------- 2 6.0 1.0 2 45
r 0.758896 0 3 tcp 1040 ------- 1 0.0 5.0 29 50
+ 0.758896 3 4 tcp 1040 ------- 1 0.0 5.0 29 50
- 0.758896 3 4 tcp 1040 ------- 1 0.0 5.0 22 41
r 0.759451 0 3 tcp 1040 ------- 1 0.0 5.0 30 51
+ 0.759451 3 4 tcp 1040 ------- 1 0.0 5.0 30 51
r 0.763936 3 4 tcp 1040 ------- 1 0.0 5.0 18 37
+ 0.763936 4 5 tcp 1040 ------- 1 0.0 5.0 18 37
- 0.763936 4 5 tcp 1040 ------- 1 0.0 5.0 18 37
- 0.767216 3 4 tcp 1040 ------- 1 0.0 5.0 23 43
r 0.769531 4 5 tcp 1040 ------- 1 0.0 5.0 15 34
+ 0.769531 5 4 ack 40 ------- 1 5.0 0.0 15 52
- 0.769531 5 4 ack 40 ------- 1 5.0 0.0 15 52
r 0.772256 3 4 tcp 1040 ------- 1 0.0 5.0 19 38
+ 0.772256 4 5 tcp 1040 ------- 1 0.0 5.0 19 38
- 0.772256 4 5 tcp 1040 ------- 1 0.0 5.0 19 38
- 0.775536 3 4 tcp 1040 ------- 1 0.0 5.0 24 44
r 0.777851 4 5 tcp 1040 ------- 1 0.0 5.0 16 35
+ 0.777851 5 4 ack 40 ------- 1 5.0 0.0 16 53
- 0.777851 5 4 ack 40 ------- 1 5.0 0.0 16 53
r 0.780496 4 3 ack 40 ------- 2 6.0 1.0 1 42
+ 0.780496 3 1 ack 40 ------- 2 6.0 1.0 1 42
- 0.780496 3 1 ack 40 ------- 2 6.0 1.0 1 42
r 0.780576 3 4 tcp 1040 ------- 1 0.0 5.0 20 39
+ 0.780576 4 5 tcp 1040 ------- 1 0.0 5.0 20 39
- 0.780576 4 5 tcp 1040 ------- 1 0.0 5.0 20 39
- 0.783856 3 4 tcp 1040 ------- 1 0.0 5.0 25 46
r 0.786171 4 5 tcp 1040 ------- 1 0.0 5.0 17 36
+ 0.786171 5 4 ack 40 ------- 1 5.0 0.0 17 54
- 0.786171 5 4 ack 40 ------- 1 5.0 0.0 17 54
r 0.788816 4 3 ack 40 ------- 2 6.0 1.0 2 45
+ 0.788816 3 1 ack 40 ------- 2 6.0 1.0 2 45
- 0.788816 3 1 ack 40 ------- 2 6.0 1.0 2 45
r 0.788896 3 4 tcp 1040 ------- 1 0.0 5.0 21 40
+ 0.788896 4 5 tcp 1040 ------- 1 0.0 5.0 21 40
- 0.788896 4 5 tcp 1040 ------- 1 0.0 5.0 21 40
r 0.790517 3 1 ack 40 ------- 2 6.0 1.0 1 42
+ 0.790517 1 3 tcp 1040 ------- 2 1.0 6.0 3 55
- 0.790517 1 3 tcp 1040 ------- 2 1.0 6.0 3 55
+ 0.790517 1 3 tcp 1040 ------- 2 1.0 6.0 4 56
- 0.791072 1 3 tcp 1040 ------- 2 1.0 6.0 4 56
- 0.792176 3 4 tcp 1040 ------- 1 0.0 5.0 26 47
r 0.794491 4 5 tcp 1040 ------- 1 0.0 5.0 18 37
+ 0.794491 5 4 ack 40 ------- 1 5.0 0.0 18 57
- 0.794491 5 4 ack 40 ------- 1 5.0 0.0 18 57
r 0.797216 3 4 tcp 1040 ------- 1 0.0 5.0 22 41
+ 0.797216 4 5 tcp 1040 ------- 1 0.0 5.0 22 41
- 0.797216 4 5 tcp 1040 ------- 1 0.0 5.0 22 41
r 0.798837 3 1 ack 40 ------- 2 6.0 1.0 2 45
+ 0.798837 1 3 tcp 1040 ------- 2 1.0 6.0 5 58
- 0.798837 1 3 tcp 1040 ------- 2 1.0 6.0 5 58
+ 0.798837 1 3 tcp 1040 ------- 2 1.0 6.0 6 59
- 0.799392 1 3 tcp 1040 ------- 2 1.0 6.0 6 59
r 0.799552 5 4 ack 40 ------- 1 5.0 0.0 15 52
+ 0.799552 4 3 ack 40 ------- 1 5.0 0.0 15 52
- 0.799552 4 3 ack 40 ------- 1 5.0 0.0 15 52
- 0.800496 3 4 tcp 1040 ------- 1 0.0 5.0 27 48
r 0.801072 1 3 tcp 1040 ------- 2 1.0 6.0 3 55
+ 0.801072 3 4 tcp 1040 ------- 2 1.0 6.0 3 55
r 0.801627 1 3 tcp 1040 ------- 2 1.0 6.0 4 56
+ 0.801627 3 4 tcp 1040 ------- 2 1.0 6.0 4 56
r 0.802811 4 5 tcp 1040 ------- 1 0.0 5.0 19 38
+ 0.802811 5 4 ack 40 ------- 1 5.0 0.0 19 60
- 0.802811 5 4 ack 40 ------- 1 5.0 0.0 19 60
r 0.805536 3 4 tcp 1040 ------- 1 0.0 5.0 23 43
+ 0.805536 4 5 tcp 1040 ------- 1 0.0 5.0 23 43
- 0.805536 4 5 tcp 1040 ------- 1 0.0 5.0 23 43
r 0.807872 5 4 ack 40 ------- 1 5.0 0.0 16 53
+ 0.807872 4 3 ack 40 ------- 1 5.0 0.0 16 53
- 0.807872 4 3 ack 40 ------- 1 5.0 0.0 16 53
- 0.808816 3 4 tcp 1040 ------- 1 0.0 5.0 28 49
r 0.809392 1 3 tcp 1040 ------- 2 1.0 6.0 5 58
+ 0.809392 3 4 tcp 1040 ------- 2 1.0 6.0 5 58
r 0.809947 1 3 tcp 1040 ------- 2 1.0 6.0 6 59
+ 0.809947 3 4 tcp 1040 ------- 2 1.0 6.0 6 59
r 0.811131 4 5 tcp 1040 ------- 1 0.0 5.0 20 39
+ 0.811131 5 4 ack 40 ------- 1 5.0 0.0 20 61
- 0.811131 5 4 ack 40 ------- 1 5.0 0.0 20 61
r 0.813856 3 4 tcp 1040 ------- 1 0.0 5.0 24 44
+ 0.813856 4 5 tcp 1040 ------- 1 0.0 5.0 24 44
- 0.813856 4 5 tcp 1040 ------- 1 0.0 5.0 24 44
r 0.816192 5 4 ack 40 ------- 1 5.0 0.0 17 54
+ 0.816192 4 3 ack 40 ------- 1 5.0 0.0 17 54
- 0.816192 4 3 ack 40 ------- 1 5.0 0.0 17 54
- 0.817136 3 4 tcp 1040 ------- 1 0.0 5.0 29 50
r 0.819451 4 5 tcp 1040 ------- 1 0.0 5.0 21 40
+ 0.819451 5 4 ack 40 ------- 1 5.0 0.0 21 62
- 0.819451 5 4 ack 40 ------- 1 5.0 0.0 21 62
r 0.822176 3 4 tcp 1040 ------- 1 0.0 5.0 25 46
+ 0.822176 4 5 tcp 1040 ------- 1 0.0 5.0 25 46
- 0.822176 4 5 tcp 1040 ------- 1 0.0 5.0 25 46
r 0.824512 5 4 ack 40 ------- 1 5.0 0.0 18 57
+ 0.824512 4 3 ack 40 ------- 1 5.0 0.0 18 57
- 0.824512 4 3 ack 40 ------- 1 5.0 0.0 18 57
- 0.825456 3 4 tcp 1040 ------- 1 0.0 5.0 30 51
r 0.827771 4 5 tcp 1040 ------- 1 0.0 5.0 22 41
+ 0.827771 5 4 ack 40 ------- 1 5.0 0.0 22 63
- 0.827771 5 4 ack 40 ------- 1 5.0 0.0 22 63
r 0.829872 4 3 ack 40 ------- 1 5.0 0.0 15 52
+ 0.829872 3 0 ack 40 ------- 1 5.0 0.0 15 52
- 0.829872 3 0 ack 40 ------- 1 5.0 0.0 15 52
r 0.830496 3 4 tcp 1040 ------- 1 0.0 5.0 26 47
+ 0.830496 4 5 tcp 1040 ------- 1 0.0 5.0 26 47
- 0.830496 4 5 tcp 1040 ------- 1 0.0 5.0 26 47
r 0.832832 5 4 ack 40 ------- 1 5.0 0.0 19 60
+ 0.832832 4 3 ack 40 ------- 1 5.0 0.0 19 60
- 0.832832 4 3 ack 40 ------- 1 5.0 0.0 19 60
- 0.833776 3 4 tcp 1040 ------- 2 1.0 6.0 3 55
r 0.836091 4 5 tcp 1040 ------- 1 0.0 5.0 23 43
+ 0.836091 5 4 ack 40 ------- 1 5.0 0.0 23 64
- 0.836091 5 4 ack 40 ------- 1 5.0 0.0 23 64
r 0.838192 4 3 ack 40 ------- 1 5.0 0.0 16 53
+ 0.838192 3 0 ack 40 ------- 1 5.0 0.0 16 53
- 0.838192 3 0 ack 40 ------- 1 5.0 0.0 16 53
r 0.838816 3 4 tcp 1040 ------- 1 0.0 5.0 27 48
+ 0.838816 4 5 tcp 1040 ------- 1 0.0 5.0 27 48
- 0.838816 4 5 tcp 1040 ------- 1 0.0 5.0 27 48
r 0.839893 3 0 ack 40 ------- 1 5.0 0.0 15 52
+ 0.839893 0 3 tcp 1040 ------- 1 0.0 5.0 31 65
- 0.839893 0 3 tcp 1040 ------- 1 0.0 5.0 31 65
+ 0.839893 0 3 tcp 1040 ------- 1 0.0 5.0 32 66
- 0.840448 0 3 tcp 1040 ------- 1 0.0 5.0 32 66
r 0.841152 5 4 ack 40 ------- 1 5.0 0.0 20 61
+ 0.841152 4 3 ack 40 ------- 1 5.0 0.0 20 61
- 0.841152 4 3 ack 40 ------- 1 5.0 0.0 20 61
- 0.842096 3 4 tcp 1040 ------- 2 1.0 6.0 4 56
r 0.844411 4 5 tcp 1040 ------- 1 0.0 5.0 24 44
+ 0.844411 5 4 ack 40 ------- 1 5.0 0.0 24 67
- 0.844411 5 4 ack 40 ------- 1 5.0 0.0 24 67
r 0.846512 4 3 ack 40 ------- 1 5.0 0.0 17 54
+ 0.846512 3 0 ack 40 ------- 1 5.0 0.0 17 54
- 0.846512 3 0 ack 40 ------- 1 5.0 0.0 17 54
r 0.847136 3 4 tcp 1040 ------- 1 0.0 5.0 28 49
+ 0.847136 4 5 tcp 1040 ------- 1 0.0 5.0 28 49
- 0.847136 4 5 tcp 1040 ------- 1 0.0 5.0 28 49
r 0.848213 3 0 ack 40 ------- 1 5.0 0.0 16 53
+ 0.848213 0 3 tcp 1040 ------- 1 0.0 5.0 33 68
- 0.848213 0 3 tcp 1040 ------- 1 0.0 5.0 33 68
+ 0.848213 0 3 tcp 1040 ------- 1 0.0 5.0 34 69
- 0.848768 0 3 tcp 1040 ------- 1 0.0 5.0 34 69
r 0.849472 5 4 ack 40 ------- 1 5.0 0.0 21 62
+ 0.849472 4 3 ack 40 ------- 1 5.0 0.0 21 62
- 0.849472 4 3 ack 40 ------- 1 5.0 0.0 21 62
- 0.850416 3 4 tcp 1040 ------- 2 1.0 6.0 5 58
r 0.850448 0 3 tcp 1040 ------- 1 0.0 5.0 31 65
+ 0.850448 3 4 tcp 1040 ------- 1 0.0 5.0 31 65
r 0.851003 0 3 tcp 1040 ------- 1 0.0 5.0 32 66
+ 0.851003 3 4 tcp 1040 ------- 1 0.0 5.0 32 66
r 0.852731 4 5 tcp 1040 ------- 1 0.0 5.0 25 46
+ 0.852731 5 4 ack 40 ------- 1 5.0 0.0 25 70
- 0.852731 5 4 ack 40 ------- 1 5.0 0.0 25 70
r 0.854832 4 3 ack 40 ------- 1 5.0 0.0 18 57
+ 0.854832 3 0 ack 40 ------- 1 5.0 0.0 18 57
- 0.854832 3 0 ack 40 ------- 1 5.0 0.0 18 57
r 0.855456 3 4 tcp 1040 ------- 1 0.0 5.0 29 50
+ 0.855456 4 5 tcp 1040 ------- 1 0.0 5.0 29 50
- 0.855456 4 5 tcp 1040 ------- 1 0.0 5.0 29 50
r 0.856533 3 0 ack 40 ------- 1 5.0 0.0 17 54
+ 0.856533 0 3 tcp 1040 ------- 1 0.0 5.0 35 71
- 0.856533 0 3 tcp 1040 ------- 1 0.0 5.0 35 71
+ 0.856533 0 3 tcp 1040 ------- 1 0.0 5.0 36 72
- 0.857088 0 3 tcp 1040 ------- 1 0.0 5.0 36 72
r 0.857792 5 4 ack 40 ------- 1 5.0 0.0 22 63
+ 0.857792 4 3 ack 40 ------- 1 5.0 0.0 22 63
- 0.857792 4 3 ack 40 ------- 1 5.0 0.0 22 63
- 0.858736 3 4 tcp 1040 ------- 2 1.0 6.0 6 59
r 0.858768 0 3 tcp 1040 ------- 1 0.0 5.0 33 68
+ 0.858768 3 4 tcp 1040 ------- 1 0.0 5.0 33 68
r 0.859323 0 3 tcp 1040 ------- 1 0.0 5.0 34 69
+ 0.859323 3 4 tcp 1040 ------- 1 0.0 5.0 34 69
r 0.861051 4 5 tcp 1040 ------- 1 0.0 5.0 26 47
+ 0.861051 5 4 ack 40 ------- 1 5.0 0.0 26 73
- 0.861051 5 4 ack 40 ------- 1 5.0 0.0 26 73
r 0.863152 4 3 ack 40 ------- 1 5.0 0.0 19 60
+ 0.863152 3 0 ack 40 ------- 1 5.0 0.0 19 60
- 0.863152 3 0 ack 40 ------- 1 5.0 0.0 19 60
r 0.863776 3 4 tcp 1040 ------- 1 0.0 5.0 30 51
+ 0.863776 4 5 tcp 1040 ------- 1 0.0 5.0 30 51
- 0.863776 4 5 tcp 1040 ------- 1 0.0 5.0 30 51
r 0.864853 3 0 ack 40 ------- 1 5.0 0.0 18 57
+ 0.864853 0 3 tcp 1040 ------- 1 0.0 5.0 37 74
- 0.864853 0 3 tcp 1040 ------- 1 0.0 5.0 37 74
+ 0.864853 0 3 tcp 1040 ------- 1 0.0 5.0 38 75
- 0.865408 0 3 tcp 1040 ------- 1 0.0 5.0 38 75
r 0.866112 5 4 ack 40 ------- 1 5.0 0.0 23 64
+ 0.866112 4 3 ack 40 ------- 1 5.0 0.0 23 64
- 0.866112 4 3 ack 40 ------- 1 5.0 0.0 23 64
- 0.867056 3 4 tcp 1040 ------- 1 0.0 5.0 31 65
r 0.867088 0 3 tcp 1040 ------- 1 0.0 5.0 35 71
+ 0.867088 3 4 tcp 1040 ------- 1 0.0 5.0 35 71
r 0.867643 0 3 tcp 1040 ------- 1 0.0 5.0 36 72
+ 0.867643 3 4 tcp 1040 ------- 1 0.0 5.0 36 72
r 0.869371 4 5 tcp 1040 ------- 1 0.0 5.0 27 48
+ 0.869371 5 4 ack 40 ------- 1 5.0 0.0 27 76
- 0.869371 5 4 ack 40 ------- 1 5.0 0.0 27 76
r 0.871472 4 3 ack 40 ------- 1 5.0 0.0 20 61
+ 0.871472 3 0 ack 40 ------- 1 5.0 0.0 20 61
- 0.871472 3 0 ack 40 ------- 1 5.0 0.0 20 61
r 0.872096 3 4 tcp 1040 ------- 2 1.0 6.0 3 55
+ 0.872096 4 6 tcp 1040 ------- 2 1.0 6.0 3 55
- 0.872096 4 6 tcp 1040 ------- 2 1.0 6.0 3 55
r 0.873173 3 0 ack 40 ------- 1 5.0 0.0 19 60
+ 0.873173 0 3 tcp 1040 ------- 1 0.0 5.0 39 77
- 0.873173 0 3 tcp 1040 ------- 1 0.0 5.0 39 77
r 0.874432 5 4 ack 40 ------- 1 5.0 0.0 24 67
+ 0.874432 4 3 ack 40 ------- 1 5.0 0.0 24 67
- 0.874432 4 3 ack 40 ------- 1 5.0 0.0 24 67
- 0.875376 3 4 tcp 1040 ------- 1 0.0 5.0 32 66
r 0.875408 0 3 tcp 1040 ------- 1 0.0 5.0 37 74
+ 0.875408 3 4 tcp 1040 ------- 1 0.0 5.0 37 74
r 0.875963 0 3 tcp 1040 ------- 1 0.0 5.0 38 75
+ 0.875963 3 4 tcp 1040 ------- 1 0.0 5.0 38 75
r 0.877691 4 5 tcp 1040 ------- 1 0.0 5.0 28 49
+ 0.877691 5 4 ack 40 ------- 1 5.0 0.0 28 78
- 0.877691 5 4 ack 40 ------- 1 5.0 0.0 28 78
r 0.879792 4 3 ack 40 ------- 1 5.0 0.0 21 62
+ 0.879792 3 0 ack 40 ------- 1 5.0 0.0 21 62
- 0.879792 3 0 ack 40 ------- 1 5.0 0.0 21 62
r 0.880416 3 4 tcp 1040 ------- 2 1.0 6.0 4 56
+ 0.880416 4 6 tcp 1040 ------- 2 1.0 6.0 4 56
- 0.880416 4 6 tcp 1040 ------- 2 1.0 6.0 4 56
r 0.881493 3 0 ack 40 ------- 1 5.0 0.0 20 61
+ 0.881493 0 3 tcp 1040 ------- 1 0.0 5.0 40 79
- 0.881493 0 3 tcp 1040 ------- 1 0.0 5.0 40 79
r 0.882752 5 4 ack 40 ------- 1 5.0 0.0 25 70
+ 0.882752 4 3 ack 40 ------- 1 5.0 0.0 25 70
- 0.882752 4 3 ack 40 ------- 1 5.0 0.0 25 70
- 0.883696 3 4 tcp 1040 ------- 1 0.0 5.0 33 68
r 0.883728 0 3 tcp 1040 ------- 1 0.0 5.0 39 77
+ 0.883728 3 4 tcp 1040 ------- 1 0.0 5.0 39 77
r 0.886011 4 5 tcp 1040 ------- 1 0.0 5.0 29 50
+ 0.886011 5 4 ack 40 ------- 1 5.0 0.0 29 80
- 0.886011 5 4 ack 40 ------- 1 5.0 0.0 29 80
r 0.888112 4 3 ack 40 ------- 1 5.0 0.0 22 63
+ 0.888112 3 0 ack 40 ------- 1 5.0 0.0 22 63
- 0.888112 3 0 ack 40 ------- 1 5.0 0.0 22 63
r 0.888736 3 4 tcp 1040 ------- 2 1.0 6.0 5 58
+ 0.888736 4 6 tcp 1040 ------- 2 1.0 6.0 5 58
- 0.888736 4 6 tcp 1040 ------- 2 1.0 6.0 5 58
r 0.889813 3 0 ack 40 ------- 1 5.0 0.0 21 62
+ 0.889813 0 3 tcp 1040 ------- 1 0.0 5.0 41 81
- 0.889813 0 3 tcp 1040 ------- 1 0.0 5.0 41 81
r 0.891072 5 4 ack 40 ------- 1 5.0 0.0 26 73
+ 0.891072 4 3 ack 40 ------- 1 5.0 0.0 26 73
- 0.891072 4 3 ack 40 ------- 1 5.0 0.0 26 73
- 0.892016 3 4 tcp 1040 ------- 1 0.0 5.0 34 69
r 0.892048 0 3 tcp 1040 ------- 1 0.0 5.0 40 79
+ 0.892048 3 4 tcp 1040 ------- 1 0.0 5.0 40 79
r 0.894331 4 5 tcp 1040 ------- 1 0.0 5.0 30 51
+ 0.894331 5 4 ack 40 ------- 1 5.0 0.0 30 82
- 0.894331 5 4 ack 40 ------- 1 5.0 0.0 30 82
r 0.896432 4 3 ack 40 ------- 1 5.0 0.0 23 64
+ 0.896432 3 0 ack 40 ------- 1 5.0 0.0 23 64
- 0.896432 3 0 ack 40 ------- 1 5.0 0.0 23 64
r 0.897056 3 4 tcp 1040 ------- 2 1.0 6.0 6 59