+ 0.5 16 0 cbr 500 ------- 0 16.0 17.0 0 0
- 0.5 16 0 cbr 500 ------- 0 16.0 17.0 0 0
+ 0.5 16 0 cbr 500 ------- 1 16.1 3.0 0 1
+ 0.5 6 0 cbr 500 ------- 2 6.0 17.1 0 2
- 0.5 6 0 cbr 500 ------- 2 6.0 17.1 0 2
+ 0.5 8 0 cbr 500 ------- 3 8.0 13.0 0 3
- 0.5 8 0 cbr 500 ------- 3 8.0 13.0 0 3
+ 0.5 14 0 cbr 500 ------- 4 14.0 19.0 0 4
- 0.5 14 0 cbr 500 ------- 4 14.0 19.0 0 4
+ 0.5 16 0 cbr 500 ------- 5 16.2 9.0 0 5
+ 0.5 18 0 cbr 500 ------- 6 18.0 15.0 0 6
- 0.5 18 0 cbr 500 ------- 6 18.0 15.0 0 6
+ 0.5 4 0 cbr 500 ------- 7 4.0 19.1 0 7
- 0.5 4 0 cbr 500 ------- 7 4.0 19.1 0 7
+ 0.5 10 0 cbr 500 ------- 8 10.0 11.0 0 8
- 0.5 10 0 cbr 500 ------- 8 10.0 11.0 0 8
+ 0.5 4 0 cbr 500 ------- 9 4.1 13.1 0 9
- 0.500267 16 0 cbr 500 ------- 1 16.1 3.0 0 1
- 0.500267 4 0 cbr 500 ------- 9 4.1 13.1 0 9
- 0.500533 16 0 cbr 500 ------- 5 16.2 9.0 0 5
r 0.510267 16 0 cbr 500 ------- 0 16.0 17.0 0 0
+ 0.510267 0 1 cbr 500 ------- 0 16.0 17.0 0 0
- 0.510267 0 1 cbr 500 ------- 0 16.0 17.0 0 0
r 0.510267 6 0 cbr 500 ------- 2 6.0 17.1 0 2
+ 0.510267 0 1 cbr 500 ------- 2 6.0 17.1 0 2
r 0.510267 8 0 cbr 500 ------- 3 8.0 13.0 0 3
+ 0.510267 0 1 cbr 500 ------- 3 8.0 13.0 0 3
r 0.510267 14 0 cbr 500 ------- 4 14.0 19.0 0 4
+ 0.510267 0 1 cbr 500 ------- 4 14.0 19.0 0 4
r 0.510267 18 0 cbr 500 ------- 6 18.0 15.0 0 6
+ 0.510267 0 1 cbr 500 ------- 6 18.0 15.0 0 6
r 0.510267 4 0 cbr 500 ------- 7 4.0 19.1 0 7
+ 0.510267 0 1 cbr 500 ------- 7 4.0 19.1 0 7
r 0.510267 10 0 cbr 500 ------- 8 10.0 11.0 0 8
+ 0.510267 0 1 cbr 500 ------- 8 10.0 11.0 0 8
r 0.510533 16 0 cbr 500 ------- 1 16.1 3.0 0 1
+ 0.510533 0 1 cbr 500 ------- 1 16.1 3.0 0 1
r 0.510533 4 0 cbr 500 ------- 9 4.1 13.1 0 9
+ 0.510533 0 1 cbr 500 ------- 9 4.1 13.1 0 9
r 0.5108 16 0 cbr 500 ------- 5 16.2 9.0 0 5
+ 0.5108 0 1 cbr 500 ------- 5 16.2 9.0 0 5
- 0.514267 0 1 cbr 500 ------- 2 6.0 17.1 0 2
- 0.518267 0 1 cbr 500 ------- 3 8.0 13.0 0 3
- 0.522267 0 1 cbr 500 ------- 4 14.0 19.0 0 4
- 0.526267 0 1 cbr 500 ------- 6 18.0 15.0 0 6
- 0.530267 0 1 cbr 500 ------- 7 4.0 19.1 0 7
- 0.534267 0 1 cbr 500 ------- 8 10.0 11.0 0 8
- 0.538267 0 1 cbr 500 ------- 1 16.1 3.0 0 1
- 0.542267 0 1 cbr 500 ------- 9 4.1 13.1 0 9
r 0.544267 0 1 cbr 500 ------- 0 16.0 17.0 0 0
+ 0.544267 1 17 cbr 500 ------- 0 16.0 17.0 0 0
- 0.544267 1 17 cbr 500 ------- 0 16.0 17.0 0 0
- 0.546267 0 1 cbr 500 ------- 5 16.2 9.0 0 5
r 0.548267 0 1 cbr 500 ------- 2 6.0 17.1 0 2
+ 0.548267 1 17 cbr 500 ------- 2 6.0 17.1 0 2
- 0.548267 1 17 cbr 500 ------- 2 6.0 17.1 0 2
r 0.552267 0 1 cbr 500 ------- 3 8.0 13.0 0 3
+ 0.552267 1 13 cbr 500 ------- 3 8.0 13.0 0 3
- 0.552267 1 13 cbr 500 ------- 3 8.0 13.0 0 3
r 0.554533 1 17 cbr 500 ------- 0 16.0 17.0 0 0
r 0.556267 0 1 cbr 500 ------- 4 14.0 19.0 0 4
+ 0.556267 1 19 cbr 500 ------- 4 14.0 19.0 0 4
- 0.556267 1 19 cbr 500 ------- 4 14.0 19.0 0 4
r 0.558533 1 17 cbr 500 ------- 2 6.0 17.1 0 2
r 0.560267 0 1 cbr 500 ------- 6 18.0 15.0 0 6
+ 0.560267 1 15 cbr 500 ------- 6 18.0 15.0 0 6
- 0.560267 1 15 cbr 500 ------- 6 18.0 15.0 0 6
r 0.562533 1 13 cbr 500 ------- 3 8.0 13.0 0 3
r 0.564267 0 1 cbr 500 ------- 7 4.0 19.1 0 7
+ 0.564267 1 19 cbr 500 ------- 7 4.0 19.1 0 7
- 0.564267 1 19 cbr 500 ------- 7 4.0 19.1 0 7
r 0.566533 1 19 cbr 500 ------- 4 14.0 19.0 0 4
r 0.568267 0 1 cbr 500 ------- 8 10.0 11.0 0 8
+ 0.568267 1 11 cbr 500 ------- 8 10.0 11.0 0 8
- 0.568267 1 11 cbr 500 ------- 8 10.0 11.0 0 8
r 0.570533 1 15 cbr 500 ------- 6 18.0 15.0 0 6
r 0.572267 0 1 cbr 500 ------- 1 16.1 3.0 0 1
+ 0.572267 1 3 cbr 500 ------- 1 16.1 3.0 0 1
- 0.572267 1 3 cbr 500 ------- 1 16.1 3.0 0 1
r 0.574533 1 19 cbr 500 ------- 7 4.0 19.1 0 7
r 0.576267 0 1 cbr 500 ------- 9 4.1 13.1 0 9
+ 0.576267 1 13 cbr 500 ------- 9 4.1 13.1 0 9
- 0.576267 1 13 cbr 500 ------- 9 4.1 13.1 0 9
r 0.578533 1 11 cbr 500 ------- 8 10.0 11.0 0 8
r 0.580267 0 1 cbr 500 ------- 5 16.2 9.0 0 5
+ 0.580267 1 9 cbr 500 ------- 5 16.2 9.0 0 5
- 0.580267 1 9 cbr 500 ------- 5 16.2 9.0 0 5
r 0.582533 1 3 cbr 500 ------- 1 16.1 3.0 0 1
r 0.586533 1 13 cbr 500 ------- 9 4.1 13.1 0 9
r 0.590533 1 9 cbr 500 ------- 5 16.2 9.0 0 5
+ 40.5 16 0 cbr 500 ------- 0 16.0 17.0 1 10
- 40.5 16 0 cbr 500 ------- 0 16.0 17.0 1 10
+ 40.5 16 0 cbr 500 ------- 1 16.1 3.0 1 11
+ 40.5 6 0 cbr 500 ------- 2 6.0 17.1 1 12
- 40.5 6 0 cbr 500 ------- 2 6.0 17.1 1 12
+ 40.5 8 0 cbr 500 ------- 3 8.0 13.0 1 13
- 40.5 8 0 cbr 500 ------- 3 8.0 13.0 1 13
+ 40.5 14 0 cbr 500 ------- 4 14.0 19.0 1 14
- 40.5 14 0 cbr 500 ------- 4 14.0 19.0 1 14
+ 40.5 16 0 cbr 500 ------- 5 16.2 9.0 1 15
+ 40.5 18 0 cbr 500 ------- 6 18.0 15.0 1 16
- 40.5 18 0 cbr 500 ------- 6 18.0 15.0 1 16
+ 40.5 4 0 cbr 500 ------- 7 4.0 19.1 1 17
- 40.5 4 0 cbr 500 ------- 7 4.0 19.1 1 17
+ 40.5 10 0 cbr 500 ------- 8 10.0 11.0 1 18
- 40.5 10 0 cbr 500 ------- 8 10.0 11.0 1 18
+ 40.5 4 0 cbr 500 ------- 9 4.1 13.1 1 19
- 40.500267 16 0 cbr 500 ------- 1 16.1 3.0 1 11
- 40.500267 4 0 cbr 500 ------- 9 4.1 13.1 1 19
- 40.500533 16 0 cbr 500 ------- 5 16.2 9.0 1 15
r 40.510267 16 0 cbr 500 ------- 0 16.0 17.0 1 10
+ 40.510267 0 1 cbr 500 ------- 0 16.0 17.0 1 10
- 40.510267 0 1 cbr 500 ------- 0 16.0 17.0 1 10
r 40.510267 6 0 cbr 500 ------- 2 6.0 17.1 1 12
+ 40.510267 0 1 cbr 500 ------- 2 6.0 17.1 1 12
r 40.510267 8 0 cbr 500 ------- 3 8.0 13.0 1 13
+ 40.510267 0 1 cbr 500 ------- 3 8.0 13.0 1 13
r 40.510267 14 0 cbr 500 ------- 4 14.0 19.0 1 14
+ 40.510267 0 1 cbr 500 ------- 4 14.0 19.0 1 14
r 40.510267 18 0 cbr 500 ------- 6 18.0 15.0 1 16
+ 40.510267 0 1 cbr 500 ------- 6 18.0 15.0 1 16
r 40.510267 4 0 cbr 500 ------- 7 4.0 19.1 1 17
+ 40.510267 0 1 cbr 500 ------- 7 4.0 19.1 1 17
r 40.510267 10 0 cbr 500 ------- 8 10.0 11.0 1 18
+ 40.510267 0 1 cbr 500 ------- 8 10.0 11.0 1 18
r 40.510533 16 0 cbr 500 ------- 1 16.1 3.0 1 11
+ 40.510533 0 1 cbr 500 ------- 1 16.1 3.0 1 11
r 40.510533 4 0 cbr 500 ------- 9 4.1 13.1 1 19
+ 40.510533 0 1 cbr 500 ------- 9 4.1 13.1 1 19
r 40.5108 16 0 cbr 500 ------- 5 16.2 9.0 1 15
+ 40.5108 0 1 cbr 500 ------- 5 16.2 9.0 1 15
- 40.514267 0 1 cbr 500 ------- 2 6.0 17.1 1 12
- 40.518267 0 1 cbr 500 ------- 3 8.0 13.0 1 13
- 40.522267 0 1 cbr 500 ------- 4 14.0 19.0 1 14
- 40.526267 0 1 cbr 500 ------- 6 18.0 15.0 1 16
- 40.530267 0 1 cbr 500 ------- 7 4.0 19.1 1 17
- 40.534267 0 1 cbr 500 ------- 8 10.0 11.0 1 18
- 40.538267 0 1 cbr 500 ------- 1 16.1 3.0 1 11
- 40.542267 0 1 cbr 500 ------- 9 4.1 13.1 1 19
r 40.544267 0 1 cbr 500 ------- 0 16.0 17.0 1 10
+ 40.544267 1 17 cbr 500 ------- 0 16.0 17.0 1 10
- 40.544267 1 17 cbr 500 ------- 0 16.0 17.0 1 10
- 40.546267 0 1 cbr 500 ------- 5 16.2 9.0 1 15
r 40.548267 0 1 cbr 500 ------- 2 6.0 17.1 1 12
+ 40.548267 1 17 cbr 500 ------- 2 6.0 17.1 1 12
- 40.548267 1 17 cbr 500 ------- 2 6.0 17.1 1 12
r 40.552267 0 1 cbr 500 ------- 3 8.0 13.0 1 13
+ 40.552267 1 13 cbr 500 ------- 3 8.0 13.0 1 13
- 40.552267 1 13 cbr 500 ------- 3 8.0 13.0 1 13
r 40.554533 1 17 cbr 500 ------- 0 16.0 17.0 1 10
r 40.556267 0 1 cbr 500 ------- 4 14.0 19.0 1 14
+ 40.556267 1 19 cbr 500 ------- 4 14.0 19.0 1 14
- 40.556267 1 19 cbr 500 ------- 4 14.0 19.0 1 14
r 40.558533 1 17 cbr 500 ------- 2 6.0 17.1 1 12
r 40.560267 0 1 cbr 500 ------- 6 18.0 15.0 1 16
+ 40.560267 1 15 cbr 500 ------- 6 18.0 15.0 1 16
- 40.560267 1 15 cbr 500 ------- 6 18.0 15.0 1 16
r 40.562533 1 13 cbr 500 ------- 3 8.0 13.0 1 13
r 40.564267 0 1 cbr 500 ------- 7 4.0 19.1 1 17
+ 40.564267 1 19 cbr 500 ------- 7 4.0 19.1 1 17
- 40.564267 1 19 cbr 500 ------- 7 4.0 19.1 1 17
r 40.566533 1 19 cbr 500 ------- 4 14.0 19.0 1 14
r 40.568267 0 1 cbr 500 ------- 8 10.0 11.0 1 18
+ 40.568267 1 11 cbr 500 ------- 8 10.0 11.0 1 18
- 40.568267 1 11 cbr 500 ------- 8 10.0 11.0 1 18
r 40.570533 1 15 cbr 500 ------- 6 18.0 15.0 1 16
r 40.572267 0 1 cbr 500 ------- 1 16.1 3.0 1 11
+ 40.572267 1 3 cbr 500 ------- 1 16.1 3.0 1 11
- 40.572267 1 3 cbr 500 ------- 1 16.1 3.0 1 11
r 40.574533 1 19 cbr 500 ------- 7 4.0 19.1 1 17
r 40.576267 0 1 cbr 500 ------- 9 4.1 13.1 1 19
+ 40.576267 1 13 cbr 500 ------- 9 4.1 13.1 1 19
- 40.576267 1 13 cbr 500 ------- 9 4.1 13.1 1 19
r 40.578533 1 11 cbr 500 ------- 8 10.0 11.0 1 18
r 40.580267 0 1 cbr 500 ------- 5 16.2 9.0 1 15
+ 40.580267 1 9 cbr 500 ------- 5 16.2 9.0 1 15
- 40.580267 1 9 cbr 500 ------- 5 16.2 9.0 1 15
r 40.582533 1 3 cbr 500 ------- 1 16.1 3.0 1 11
r 40.586533 1 13 cbr 500 ------- 9 4.1 13.1 1 19
r 40.590533 1 9 cbr 500 ------- 5 16.2 9.0 1 15
+ 80.5 16 0 cbr 500 ------- 0 16.0 17.0 2 20
- 80.5 16 0 cbr 500 ------- 0 16.0 17.0 2 20
+ 80.5 16 0 cbr 500 ------- 1 16.1 3.0 2 21
+ 80.5 6 0 cbr 500 ------- 2 6.0 17.1 2 22
- 80.5 6 0 cbr 500 ------- 2 6.0 17.1 2 22
+ 80.5 8 0 cbr 500 ------- 3 8.0 13.0 2 23
- 80.5 8 0 cbr 500 ------- 3 8.0 13.0 2 23
+ 80.5 14 0 cbr 500 ------- 4 14.0 19.0 2 24
- 80.5 14 0 cbr 500 ------- 4 14.0 19.0 2 24
+ 80.5 16 0 cbr 500 ------- 5 16.2 9.0 2 25
+ 80.5 18 0 cbr 500 ------- 6 18.0 15.0 2 26
- 80.5 18 0 cbr 500 ------- 6 18.0 15.0 2 26
+ 80.5 4 0 cbr 500 ------- 7 4.0 19.1 2 27
- 80.5 4 0 cbr 500 ------- 7 4.0 19.1 2 27
+ 80.5 10 0 cbr 500 ------- 8 10.0 11.0 2 28
- 80.5 10 0 cbr 500 ------- 8 10.0 11.0 2 28
+ 80.5 4 0 cbr 500 ------- 9 4.1 13.1 2 29
- 80.500267 16 0 cbr 500 ------- 1 16.1 3.0 2 21
- 80.500267 4 0 cbr 500 ------- 9 4.1 13.1 2 29
- 80.500533 16 0 cbr 500 ------- 5 16.2 9.0 2 25
r 80.510267 16 0 cbr 500 ------- 0 16.0 17.0 2 20
+ 80.510267 0 1 cbr 500 ------- 0 16.0 17.0 2 20
- 80.510267 0 1 cbr 500 ------- 0 16.0 17.0 2 20
r 80.510267 6 0 cbr 500 ------- 2 6.0 17.1 2 22
+ 80.510267 0 1 cbr 500 ------- 2 6.0 17.1 2 22
r 80.510267 8 0 cbr 500 ------- 3 8.0 13.0 2 23
+ 80.510267 0 1 cbr 500 ------- 3 8.0 13.0 2 23
r 80.510267 14 0 cbr 500 ------- 4 14.0 19.0 2 24
+ 80.510267 0 1 cbr 500 ------- 4 14.0 19.0 2 24
r 80.510267 18 0 cbr 500 ------- 6 18.0 15.0 2 26
+ 80.510267 0 1 cbr 500 ------- 6 18.0 15.0 2 26
r 80.510267 4 0 cbr 500 ------- 7 4.0 19.1 2 27
+ 80.510267 0 1 cbr 500 ------- 7 4.0 19.1 2 27
r 80.510267 10 0 cbr 500 ------- 8 10.0 11.0 2 28
+ 80.510267 0 1 cbr 500 ------- 8 10.0 11.0 2 28
r 80.510533 16 0 cbr 500 ------- 1 16.1 3.0 2 21
+ 80.510533 0 1 cbr 500 ------- 1 16.1 3.0 2 21
r 80.510533 4 0 cbr 500 ------- 9 4.1 13.1 2 29
+ 80.510533 0 1 cbr 500 ------- 9 4.1 13.1 2 29
r 80.5108 16 0 cbr 500 ------- 5 16.2 9.0 2 25
+ 80.5108 0 1 cbr 500 ------- 5 16.2 9.0 2 25
- 80.514267 0 1 cbr 500 ------- 2 6.0 17.1 2 22
- 80.518267 0 1 cbr 500 ------- 3 8.0 13.0 2 23
- 80.522267 0 1 cbr 500 ------- 4 14.0 19.0 2 24
- 80.526267 0 1 cbr 500 ------- 6 18.0 15.0 2 26
- 80.530267 0 1 cbr 500 ------- 7 4.0 19.1 2 27
- 80.534267 0 1 cbr 500 ------- 8 10.0 11.0 2 28
- 80.538267 0 1 cbr 500 ------- 1 16.1 3.0 2 21
- 80.542267 0 1 cbr 500 ------- 9 4.1 13.1 2 29
r 80.544267 0 1 cbr 500 ------- 0 16.0 17.0 2 20
+ 80.544267 1 17 cbr 500 ------- 0 16.0 17.0 2 20
- 80.544267 1 17 cbr 500 ------- 0 16.0 17.0 2 20
- 80.546267 0 1 cbr 500 ------- 5 16.2 9.0 2 25
r 80.548267 0 1 cbr 500 ------- 2 6.0 17.1 2 22
+ 80.548267 1 17 cbr 500 ------- 2 6.0 17.1 2 22
- 80.548267 1 17 cbr 500 ------- 2 6.0 17.1 2 22
r 80.552267 0 1 cbr 500 ------- 3 8.0 13.0 2 23
+ 80.552267 1 13 cbr 500 ------- 3 8.0 13.0 2 23
- 80.552267 1 13 cbr 500 ------- 3 8.0 13.0 2 23
r 80.554533 1 17 cbr 500 ------- 0 16.0 17.0 2 20
r 80.556267 0 1 cbr 500 ------- 4 14.0 19.0 2 24
+ 80.556267 1 19 cbr 500 ------- 4 14.0 19.0 2 24
- 80.556267 1 19 cbr 500 ------- 4 14.0 19.0 2 24
r 80.558533 1 17 cbr 500 ------- 2 6.0 17.1 2 22
r 80.560267 0 1 cbr 500 ------- 6 18.0 15.0 2 26
+ 80.560267 1 15 cbr 500 ------- 6 18.0 15.0 2 26
- 80.560267 1 15 cbr 500 ------- 6 18.0 15.0 2 26
r 80.562533 1 13 cbr 500 ------- 3 8.0 13.0 2 23
r 80.564267 0 1 cbr 500 ------- 7 4.0 19.1 2 27
+ 80.564267 1 19 cbr 500 ------- 7 4.0 19.1 2 27
- 80.564267 1 19 cbr 500 ------- 7 4.0 19.1 2 27
r 80.566533 1 19 cbr 500 ------- 4 14.0 19.0 2 24
r 80.568267 0 1 cbr 500 ------- 8 10.0 11.0 2 28
+ 80.568267 1 11 cbr 500 ------- 8 10.0 11.0 2 28
- 80.568267 1 11 cbr 500 ------- 8 10.0 11.0 2 28
r 80.570533 1 15 cbr 500 ------- 6 18.0 15.0 2 26
r 80.572267 0 1 cbr 500 ------- 1 16.1 3.0 2 21
+ 80.572267 1 3 cbr 500 ------- 1 16.1 3.0 2 21
- 80.572267 1 3 cbr 500 ------- 1 16.1 3.0 2 21
r 80.574533 1 19 cbr 500 ------- 7 4.0 19.1 2 27
r 80.576267 0 1 cbr 500 ------- 9 4.1 13.1 2 29
+ 80.576267 1 13 cbr 500 ------- 9 4.1 13.1 2 29
- 80.576267 1 13 cbr 500 ------- 9 4.1 13.1 2 29
r 80.578533 1 11 cbr 500 ------- 8 10.0 11.0 2 28
r 80.580267 0 1 cbr 500 ------- 5 16.2 9.0 2 25
+ 80.580267 1 9 cbr 500 ------- 5 16.2 9.0 2 25
- 80.580267 1 9 cbr 500 ------- 5 16.2 9.0 2 25
r 80.582533 1 3 cbr 500 ------- 1 16.1 3.0 2 21
r 80.586533 1 13 cbr 500 ------- 9 4.1 13.1 2 29
r 80.590533 1 9 cbr 500 ------- 5 16.2 9.0 2 25
