s 1.000000000 _22_ AGT  --- 0 tcp 40 [0 0 0 0] [energy 3.000000 ei 0.000 es 0.000 et 0.000 er 0.000] ------- [22:0 17:0 32 0] [0 0] 0 0
r 1.000000000 _22_ RTR  --- 0 tcp 40 [0 0 0 0] [energy 3.000000 ei 0.000 es 0.000 et 0.000 er 0.000] ------- [22:0 17:0 32 0] [0 0] 0 0
s 1.000000000 _22_ AGT  --- 1 tcp 40 [0 0 0 0] [energy 3.000000 ei 0.000 es 0.000 et 0.000 er 0.000] ------- [22:1 24:0 32 0] [0 0] 0 0
r 1.000000000 _22_ RTR  --- 1 tcp 40 [0 0 0 0] [energy 3.000000 ei 0.000 es 0.000 et 0.000 er 0.000] ------- [22:1 24:0 32 0] [0 0] 0 0
s 1.000000000 _22_ AGT  --- 2 tcp 40 [0 0 0 0] [energy 3.000000 ei 0.000 es 0.000 et 0.000 er 0.000] ------- [22:2 13:0 32 0] [0 0] 0 0
r 1.000000000 _22_ RTR  --- 2 tcp 40 [0 0 0 0] [energy 3.000000 ei 0.000 es 0.000 et 0.000 er 0.000] ------- [22:2 13:0 32 0] [0 0] 0 0
s 1.000000000 _22_ AGT  --- 3 tcp 40 [0 0 0 0] [energy 3.000000 ei 0.000 es 0.000 et 0.000 er 0.000] ------- [22:3 20:0 32 0] [0 0] 0 0
r 1.000000000 _22_ RTR  --- 3 tcp 40 [0 0 0 0] [energy 3.000000 ei 0.000 es 0.000 et 0.000 er 0.000] ------- [22:3 20:0 32 0] [0 0] 0 0
s 1.000000000 _22_ AGT  --- 4 tcp 40 [0 0 0 0] [energy 3.000000 ei 0.000 es 0.000 et 0.000 er 0.000] ------- [22:4 31:0 32 0] [0 0] 0 0
r 1.000000000 _22_ RTR  --- 4 tcp 40 [0 0 0 0] [energy 3.000000 ei 0.000 es 0.000 et 0.000 er 0.000] ------- [22:4 31:0 32 0] [0 0] 0 0
s 1.000000000 _22_ AGT  --- 5 tcp 40 [0 0 0 0] [energy 3.000000 ei 0.000 es 0.000 et 0.000 er 0.000] ------- [22:5 4:0 32 0] [0 0] 0 0
r 1.000000000 _22_ RTR  --- 5 tcp 40 [0 0 0 0] [energy 3.000000 ei 0.000 es 0.000 et 0.000 er 0.000] ------- [22:5 4:0 32 0] [0 0] 0 0
s 1.000000000 _22_ AGT  --- 6 tcp 40 [0 0 0 0] [energy 3.000000 ei 0.000 es 0.000 et 0.000 er 0.000] ------- [22:6 2:0 32 0] [0 0] 0 0
r 1.000000000 _22_ RTR  --- 6 tcp 40 [0 0 0 0] [energy 3.000000 ei 0.000 es 0.000 et 0.000 er 0.000] ------- [22:6 2:0 32 0] [0 0] 0 0
s 1.000000000 _22_ AGT  --- 7 tcp 40 [0 0 0 0] [energy 3.000000 ei 0.000 es 0.000 et 0.000 er 0.000] ------- [22:7 25:0 32 0] [0 0] 0 0
r 1.000000000 _22_ RTR  --- 7 tcp 40 [0 0 0 0] [energy 3.000000 ei 0.000 es 0.000 et 0.000 er 0.000] ------- [22:7 25:0 32 0] [0 0] 0 0
s 1.000000000 _22_ AGT  --- 8 tcp 40 [0 0 0 0] [energy 3.000000 ei 0.000 es 0.000 et 0.000 er 0.000] ------- [22:8 37:0 32 0] [0 0] 0 0
r 1.000000000 _22_ RTR  --- 8 tcp 40 [0 0 0 0] [energy 3.000000 ei 0.000 es 0.000 et 0.000 er 0.000] ------- [22:8 37:0 32 0] [0 0] 0 0
s 1.000000000 _22_ AGT  --- 9 tcp 40 [0 0 0 0] [energy 3.000000 ei 0.000 es 0.000 et 0.000 er 0.000] ------- [22:9 19:0 32 0] [0 0] 0 0
r 1.000000000 _22_ RTR  --- 9 tcp 40 [0 0 0 0] [energy 3.000000 ei 0.000 es 0.000 et 0.000 er 0.000] ------- [22:9 19:0 32 0] [0 0] 0 0
s 1.000000000 _22_ AGT  --- 10 tcp 40 [0 0 0 0] [energy 3.000000 ei 0.000 es 0.000 et 0.000 er 0.000] ------- [22:10 30:0 32 0] [0 0] 0 0
r 1.000000000 _22_ RTR  --- 10 tcp 40 [0 0 0 0] [energy 3.000000 ei 0.000 es 0.000 et 0.000 er 0.000] ------- [22:10 30:0 32 0] [0 0] 0 0
s 1.000000000 _22_ AGT  --- 11 tcp 40 [0 0 0 0] [energy 3.000000 ei 0.000 es 0.000 et 0.000 er 0.000] ------- [22:11 33:0 32 0] [0 0] 0 0
r 1.000000000 _22_ RTR  --- 11 tcp 40 [0 0 0 0] [energy 3.000000 ei 0.000 es 0.000 et 0.000 er 0.000] ------- [22:11 33:0 32 0] [0 0] 0 0
s 1.000000000 _22_ AGT  --- 12 tcp 40 [0 0 0 0] [energy 3.000000 ei 0.000 es 0.000 et 0.000 er 0.000] ------- [22:12 11:0 32 0] [0 0] 0 0
r 1.000000000 _22_ RTR  --- 12 tcp 40 [0 0 0 0] [energy 3.000000 ei 0.000 es 0.000 et 0.000 er 0.000] ------- [22:12 11:0 32 0] [0 0] 0 0
s 1.000000000 _22_ AGT  --- 13 tcp 40 [0 0 0 0] [energy 3.000000 ei 0.000 es 0.000 et 0.000 er 0.000] ------- [22:13 17:1 32 0] [0 0] 0 0
r 1.000000000 _22_ RTR  --- 13 tcp 40 [0 0 0 0] [energy 3.000000 ei 0.000 es 0.000 et 0.000 er 0.000] ------- [22:13 17:1 32 0] [0 0] 0 0
s 1.000000000 _22_ AGT  --- 14 tcp 40 [0 0 0 0] [energy 3.000000 ei 0.000 es 0.000 et 0.000 er 0.000] ------- [22:14 5:0 32 0] [0 0] 0 0
r 1.000000000 _22_ RTR  --- 14 tcp 40 [0 0 0 0] [energy 3.000000 ei 0.000 es 0.000 et 0.000 er 0.000] ------- [22:14 5:0 32 0] [0 0] 0 0
s 1.000000000 _22_ AGT  --- 15 tcp 40 [0 0 0 0] [energy 3.000000 ei 0.000 es 0.000 et 0.000 er 0.000] ------- [22:15 10:0 32 0] [0 0] 0 0
r 1.000000000 _22_ RTR  --- 15 tcp 40 [0 0 0 0] [energy 3.000000 ei 0.000 es 0.000 et 0.000 er 0.000] ------- [22:15 10:0 32 0] [0 0] 0 0
s 1.000000000 _22_ AGT  --- 16 tcp 40 [0 0 0 0] [energy 3.000000 ei 0.000 es 0.000 et 0.000 er 0.000] ------- [22:16 31:1 32 0] [0 0] 0 0
r 1.000000000 _22_ RTR  --- 16 tcp 40 [0 0 0 0] [energy 3.000000 ei 0.000 es 0.000 et 0.000 er 0.000] ------- [22:16 31:1 32 0] [0 0] 0 0
s 1.000000000 _22_ AGT  --- 17 tcp 40 [0 0 0 0] [energy 3.000000 ei 0.000 es 0.000 et 0.000 er 0.000] ------- [22:17 28:0 32 0] [0 0] 0 0
r 1.000000000 _22_ RTR  --- 17 tcp 40 [0 0 0 0] [energy 3.000000 ei 0.000 es 0.000 et 0.000 er 0.000] ------- [22:17 28:0 32 0] [0 0] 0 0
s 1.000000000 _22_ AGT  --- 18 tcp 40 [0 0 0 0] [energy 3.000000 ei 0.000 es 0.000 et 0.000 er 0.000] ------- [22:18 36:0 32 0] [0 0] 0 0
r 1.000000000 _22_ RTR  --- 18 tcp 40 [0 0 0 0] [energy 3.000000 ei 0.000 es 0.000 et 0.000 er 0.000] ------- [22:18 36:0 32 0] [0 0] 0 0
s 1.000000000 _22_ AGT  --- 19 tcp 40 [0 0 0 0] [energy 3.000000 ei 0.000 es 0.000 et 0.000 er 0.000] ------- [22:19 14:0 32 0] [0 0] 0 0
r 1.000000000 _22_ RTR  --- 19 tcp 40 [0 0 0 0] [energy 3.000000 ei 0.000 es 0.000 et 0.000 er 0.000] ------- [22:19 14:0 32 0] [0 0] 0 0
s 1.000000000 _22_ RTR  --- 0 AODV 48 [0 0 0 0] [energy 3.000000 ei 0.000 es 0.000 et 0.000 er 0.000] ------- [22:255 -1:255 30 0] [0x2 1 1 [17 0] [22 4]] (REQUEST)
s 1.000000000 _22_ RTR  --- 0 AODV 48 [0 0 0 0] [energy 3.000000 ei 0.000 es 0.000 et 0.000 er 0.000] ------- [22:255 -1:255 30 0] [0x2 1 2 [24 0] [22 6]] (REQUEST)
s 1.000000000 _22_ RTR  --- 0 AODV 48 [0 0 0 0] [energy 3.000000 ei 0.000 es 0.000 et 0.000 er 0.000] ------- [22:255 -1:255 30 0] [0x2 1 3 [13 0] [22 8]] (REQUEST)
s 1.000000000 _22_ RTR  --- 0 AODV 48 [0 0 0 0] [energy 3.000000 ei 0.000 es 0.000 et 0.000 er 0.000] ------- [22:255 -1:255 30 0] [0x2 1 4 [20 0] [22 10]] (REQUEST)
s 1.000000000 _22_ RTR  --- 0 AODV 48 [0 0 0 0] [energy 3.000000 ei 0.000 es 0.000 et 0.000 er 0.000] ------- [22:255 -1:255 30 0] [0x2 1 5 [31 0] [22 12]] (REQUEST)
s 1.000000000 _22_ RTR  --- 0 AODV 48 [0 0 0 0] [energy 3.000000 ei 0.000 es 0.000 et 0.000 er 0.000] ------- [22:255 -1:255 30 0] [0x2 1 6 [4 0] [22 14]] (REQUEST)
s 1.000000000 _22_ RTR  --- 0 AODV 48 [0 0 0 0] [energy 3.000000 ei 0.000 es 0.000 et 0.000 er 0.000] ------- [22:255 -1:255 30 0] [0x2 1 7 [2 0] [22 16]] (REQUEST)
s 1.000000000 _22_ RTR  --- 0 AODV 48 [0 0 0 0] [energy 3.000000 ei 0.000 es 0.000 et 0.000 er 0.000] ------- [22:255 -1:255 30 0] [0x2 1 8 [25 0] [22 18]] (REQUEST)
s 1.000000000 _22_ RTR  --- 0 AODV 48 [0 0 0 0] [energy 3.000000 ei 0.000 es 0.000 et 0.000 er 0.000] ------- [22:255 -1:255 30 0] [0x2 1 9 [37 0] [22 20]] (REQUEST)
s 1.000000000 _22_ RTR  --- 0 AODV 48 [0 0 0 0] [energy 3.000000 ei 0.000 es 0.000 et 0.000 er 0.000] ------- [22:255 -1:255 30 0] [0x2 1 10 [19 0] [22 22]] (REQUEST)
s 1.000000000 _22_ RTR  --- 0 AODV 48 [0 0 0 0] [energy 3.000000 ei 0.000 es 0.000 et 0.000 er 0.000] ------- [22:255 -1:255 30 0] [0x2 1 11 [30 0] [22 24]] (REQUEST)
s 1.000000000 _22_ RTR  --- 0 AODV 48 [0 0 0 0] [energy 3.000000 ei 0.000 es 0.000 et 0.000 er 0.000] ------- [22:255 -1:255 30 0] [0x2 1 12 [33 0] [22 26]] (REQUEST)
s 1.000000000 _22_ RTR  --- 0 AODV 48 [0 0 0 0] [energy 3.000000 ei 0.000 es 0.000 et 0.000 er 0.000] ------- [22:255 -1:255 30 0] [0x2 1 13 [11 0] [22 28]] (REQUEST)
s 1.000000000 _22_ RTR  --- 0 AODV 48 [0 0 0 0] [energy 3.000000 ei 0.000 es 0.000 et 0.000 er 0.000] ------- [22:255 -1:255 30 0] [0x2 1 14 [5 0] [22 30]] (REQUEST)
s 1.000000000 _22_ RTR  --- 0 AODV 48 [0 0 0 0] [energy 3.000000 ei 0.000 es 0.000 et 0.000 er 0.000] ------- [22:255 -1:255 30 0] [0x2 1 15 [10 0] [22 32]] (REQUEST)
s 1.000000000 _22_ RTR  --- 0 AODV 48 [0 0 0 0] [energy 3.000000 ei 0.000 es 0.000 et 0.000 er 0.000] ------- [22:255 -1:255 30 0] [0x2 1 16 [28 0] [22 34]] (REQUEST)
s 1.000000000 _22_ RTR  --- 0 AODV 48 [0 0 0 0] [energy 3.000000 ei 0.000 es 0.000 et 0.000 er 0.000] ------- [22:255 -1:255 30 0] [0x2 1 17 [36 0] [22 36]] (REQUEST)
s 1.000000000 _22_ RTR  --- 0 AODV 48 [0 0 0 0] [energy 3.000000 ei 0.000 es 0.000 et 0.000 er 0.000] ------- [22:255 -1:255 30 0] [0x2 1 18 [14 0] [22 38]] (REQUEST)
N -t 1.000395 -n 11 -e 2.549059
N -t 1.000395 -n 18 -e 2.549059
N -t 1.000395 -n 29 -e 2.549059
N -t 1.000396 -n 24 -e 2.549059
N -t 1.000396 -n 30 -e 2.549059
N -t 1.000396 -n 33 -e 2.549059
N -t 1.000396 -n 31 -e 2.549059
N -t 1.000396 -n 35 -e 2.549059
N -t 1.000396 -n 34 -e 2.549059
N -t 1.000396 -n 6 -e 2.549059
N -t 1.000396 -n 4 -e 2.549059
N -t 1.000396 -n 10 -e 2.549058
N -t 1.000396 -n 7 -e 2.549058
N -t 1.000396 -n 1 -e 2.549058
N -t 1.000397 -n 9 -e 2.549058
N -t 1.000397 -n 3 -e 2.549058
N -t 1.000397 -n 27 -e 2.549058
N -t 1.000397 -n 36 -e 2.549058
N -t 1.000397 -n 37 -e 2.549058
r 1.001268195 _11_ RTR  --- 0 AODV 48 [0 ffffffff 16 800] [energy 2.549059 ei 0.450 es 0.000 et 0.000 er 0.001] ------- [22:255 -1:255 30 0] [0x2 1 1 [17 0] [22 4]] (REQUEST)
r 1.001268297 _18_ RTR  --- 0 AODV 48 [0 ffffffff 16 800] [energy 2.549059 ei 0.450 es 0.000 et 0.000 er 0.001] ------- [22:255 -1:255 30 0] [0x2 1 1 [17 0] [22 4]] (REQUEST)
r 1.001268498 _29_ RTR  --- 0 AODV 48 [0 ffffffff 16 800] [energy 2.549059 ei 0.450 es 0.000 et 0.000 er 0.001] ------- [22:255 -1:255 30 0] [0x2 1 1 [17 0] [22 4]] (REQUEST)
r 1.001268631 _24_ RTR  --- 0 AODV 48 [0 ffffffff 16 800] [energy 2.549059 ei 0.450 es 0.000 et 0.000 er 0.001] ------- [22:255 -1:255 30 0] [0x2 1 1 [17 0] [22 4]] (REQUEST)
r 1.001268732 _30_ RTR  --- 0 AODV 48 [0 ffffffff 16 800] [energy 2.549059 ei 0.450 es 0.000 et 0.000 er 0.001] ------- [22:255 -1:255 30 0] [0x2 1 1 [17 0] [22 4]] (REQUEST)
r 1.001268764 _33_ RTR  --- 0 AODV 48 [0 ffffffff 16 800] [energy 2.549059 ei 0.450 es 0.000 et 0.000 er 0.001] ------- [22:255 -1:255 30 0] [0x2 1 1 [17 0] [22 4]] (REQUEST)
N -t 1.001493 -n 11 -e 2.548183
N -t 1.001493 -n 18 -e 2.548183
N -t 1.001493 -n 29 -e 2.548183
N -t 1.001494 -n 24 -e 2.548183
N -t 1.001494 -n 30 -e 2.548183
N -t 1.001494 -n 33 -e 2.548183
N -t 1.001494 -n 31 -e 2.548183
N -t 1.001494 -n 35 -e 2.548183
N -t 1.001494 -n 34 -e 2.548183
N -t 1.001494 -n 6 -e 2.548183
N -t 1.001494 -n 4 -e 2.548183
N -t 1.001494 -n 10 -e 2.548183
N -t 1.001494 -n 7 -e 2.548183
N -t 1.001494 -n 1 -e 2.548183
N -t 1.001495 -n 9 -e 2.548183
N -t 1.001495 -n 3 -e 2.548183
N -t 1.001495 -n 27 -e 2.548183
N -t 1.001495 -n 36 -e 2.548183
N -t 1.001495 -n 37 -e 2.548183
r 1.002366195 _11_ RTR  --- 0 AODV 48 [0 ffffffff 16 800] [energy 2.548183 ei 0.450 es 0.000 et 0.000 er 0.002] ------- [22:255 -1:255 30 0] [0x2 1 18 [14 0] [22 38]] (REQUEST)
r 1.002366297 _18_ RTR  --- 0 AODV 48 [0 ffffffff 16 800] [energy 2.548183 ei 0.450 es 0.000 et 0.000 er 0.002] ------- [22:255 -1:255 30 0] [0x2 1 18 [14 0] [22 38]] (REQUEST)
r 1.002366498 _29_ RTR  --- 0 AODV 48 [0 ffffffff 16 800] [energy 2.548183 ei 0.450 es 0.000 et 0.000 er 0.002] ------- [22:255 -1:255 30 0] [0x2 1 18 [14 0] [22 38]] (REQUEST)
r 1.002366631 _24_ RTR  --- 0 AODV 48 [0 ffffffff 16 800] [energy 2.548183 ei 0.450 es 0.000 et 0.000 er 0.002] ------- [22:255 -1:255 30 0] [0x2 1 18 [14 0] [22 38]] (REQUEST)
r 1.002366732 _30_ RTR  --- 0 AODV 48 [0 ffffffff 16 800] [energy 2.548183 ei 0.450 es 0.000 et 0.000 er 0.002] ------- [22:255 -1:255 30 0] [0x2 1 18 [14 0] [22 38]] (REQUEST)
r 1.002366764 _33_ RTR  --- 0 AODV 48 [0 ffffffff 16 800] [energy 2.548183 ei 0.450 es 0.000 et 0.000 er 0.002] ------- [22:255 -1:255 30 0] [0x2 1 18 [14 0] [22 38]] (REQUEST)
N -t 1.002791 -n 11 -e 2.547218
N -t 1.002791 -n 18 -e 2.547218
N -t 1.002791 -n 29 -e 2.547217
N -t 1.002792 -n 24 -e 2.547217
N -t 1.002792 -n 30 -e 2.547217
N -t 1.002792 -n 33 -e 2.547217
N -t 1.002792 -n 31 -e 2.547217
N -t 1.002792 -n 35 -e 2.547217
N -t 1.002792 -n 34 -e 2.547217
N -t 1.002792 -n 6 -e 2.547217
N -t 1.002792 -n 4 -e 2.547217
N -t 1.002792 -n 10 -e 2.547217
N -t 1.002792 -n 7 -e 2.547217
N -t 1.002792 -n 1 -e 2.547217
N -t 1.002793 -n 9 -e 2.547217
N -t 1.002793 -n 3 -e 2.547217
N -t 1.002793 -n 27 -e 2.547217
N -t 1.002793 -n 36 -e 2.547217
N -t 1.002793 -n 37 -e 2.547217
r 1.003664195 _11_ RTR  --- 0 AODV 48 [0 ffffffff 16 800] [energy 2.547218 ei 0.450 es 0.000 et 0.000 er 0.002] ------- [22:255 -1:255 30 0] [0x2 1 17 [36 0] [22 36]] (REQUEST)
r 1.003664297 _18_ RTR  --- 0 AODV 48 [0 ffffffff 16 800] [energy 2.547218 ei 0.450 es 0.000 et 0.000 er 0.002] ------- [22:255 -1:255 30 0] [0x2 1 17 [36 0] [22 36]] (REQUEST)
r 1.003664498 _29_ RTR  --- 0 AODV 48 [0 ffffffff 16 800] [energy 2.547217 ei 0.450 es 0.000 et 0.000 er 0.002] ------- [22:255 -1:255 30 0] [0x2 1 17 [36 0] [22 36]] (REQUEST)
r 1.003664631 _24_ RTR  --- 0 AODV 48 [0 ffffffff 16 800] [energy 2.547217 ei 0.450 es 0.000 et 0.000 er 0.002] ------- [22:255 -1:255 30 0] [0x2 1 17 [36 0] [22 36]] (REQUEST)
r 1.003664732 _30_ RTR  --- 0 AODV 48 [0 ffffffff 16 800] [energy 2.547217 ei 0.450 es 0.000 et 0.000 er 0.002] ------- [22:255 -1:255 30 0] [0x2 1 17 [36 0] [22 36]] (REQUEST)
r 1.003664764 _33_ RTR  --- 0 AODV 48 [0 ffffffff 16 800] [energy 2.547217 ei 0.450 es 0.000 et 0.000 er 0.002] ------- [22:255 -1:255 30 0] [0x2 1 17 [36 0] [22 36]] (REQUEST)
N -t 1.003769 -n 11 -e 2.546396
N -t 1.003769 -n 18 -e 2.546396
N -t 1.003769 -n 29 -e 2.546396
N -t 1.003770 -n 24 -e 2.546396
N -t 1.003770 -n 30 -e 2.546396
N -t 1.003770 -n 33 -e 2.546396
N -t 1.003770 -n 31 -e 2.546396
N -t 1.003770 -n 35 -e 2.546396
N -t 1.003770 -n 34 -e 2.546396
N -t 1.003770 -n 6 -e 2.546395
N -t 1.003770 -n 4 -e 2.546395
N -t 1.003770 -n 10 -e 2.546395
N -t 1.003770 -n 7 -e 2.546395
N -t 1.003770 -n 1 -e 2.546395
N -t 1.003771 -n 9 -e 2.546395
N -t 1.003771 -n 3 -e 2.546395
N -t 1.003771 -n 27 -e 2.546395
N -t 1.003771 -n 36 -e 2.546395
N -t 1.003771 -n 37 -e 2.546395
s 1.003849075 _11_ RTR  --- 0 AODV 48 [0 ffffffff 16 800] [energy 2.546396 ei 0.451 es 0.000 et 0.000 er 0.003] ------- [11:255 -1:255 29 0] [0x2 2 1 [17 0] [22 4]] (REQUEST)
s 1.004537790 _11_ RTR  --- 0 AODV 48 [0 ffffffff 16 800] [energy 2.546396 ei 0.451 es 0.000 et 0.000 er 0.003] ------- [11:255 -1:255 29 0] [0x2 2 18 [14 0] [22 38]] (REQUEST)
r 1.004642195 _11_ RTR  --- 0 AODV 48 [0 ffffffff 16 800] [energy 2.546396 ei 0.451 es 0.000 et 0.000 er 0.003] ------- [22:255 -1:255 30 0] [0x2 1 16 [28 0] [22 34]] (REQUEST)
r 1.004642297 _18_ RTR  --- 0 AODV 48 [0 ffffffff 16 800] [energy 2.546396 ei 0.451 es 0.000 et 0.000 er 0.003] ------- [22:255 -1:255 30 0] [0x2 1 16 [28 0] [22 34]] (REQUEST)
r 1.004642498 _29_ RTR  --- 0 AODV 48 [0 ffffffff 16 800] [energy 2.546396 ei 0.451 es 0.000 et 0.000 er 0.003] ------- [22:255 -1:255 30 0] [0x2 1 16 [28 0] [22 34]] (REQUEST)
r 1.004642631 _24_ RTR  --- 0 AODV 48 [0 ffffffff 16 800] [energy 2.546396 ei 0.451 es 0.000 et 0.000 er 0.003] ------- [22:255 -1:255 30 0] [0x2 1 16 [28 0] [22 34]] (REQUEST)
r 1.004642732 _30_ RTR  --- 0 AODV 48 [0 ffffffff 16 800] [energy 2.546396 ei 0.451 es 0.000 et 0.000 er 0.003] ------- [22:255 -1:255 30 0] [0x2 1 16 [28 0] [22 34]] (REQUEST)
r 1.004642764 _33_ RTR  --- 0 AODV 48 [0 ffffffff 16 800] [energy 2.546396 ei 0.451 es 0.000 et 0.000 er 0.003] ------- [22:255 -1:255 30 0] [0x2 1 16 [28 0] [22 34]] (REQUEST)
N -t 1.004727 -n 11 -e 2.545583
N -t 1.004727 -n 18 -e 2.545583
N -t 1.004727 -n 29 -e 2.545583
N -t 1.004728 -n 24 -e 2.545583
N -t 1.004728 -n 30 -e 2.545583
N -t 1.004728 -n 33 -e 2.545583
N -t 1.004728 -n 31 -e 2.545583
N -t 1.004728 -n 35 -e 2.545583
N -t 1.004728 -n 34 -e 2.545583
N -t 1.004728 -n 6 -e 2.545583
N -t 1.004728 -n 4 -e 2.545583
N -t 1.004728 -n 10 -e 2.545583
N -t 1.004728 -n 7 -e 2.545583
N -t 1.004728 -n 1 -e 2.545583
N -t 1.004729 -n 9 -e 2.545583
N -t 1.004729 -n 3 -e 2.545583
N -t 1.004729 -n 27 -e 2.545583
N -t 1.004729 -n 36 -e 2.545583
N -t 1.004729 -n 37 -e 2.545582
s 1.004750279 _11_ RTR  --- 0 AODV 48 [0 ffffffff 16 800] [energy 2.545583 ei 0.451 es 0.000 et 0.000 er 0.004] ------- [11:255 -1:255 29 0] [0x2 2 16 [28 0] [22 34]] (REQUEST)
s 1.004756180 _11_ RTR  --- 0 AODV 48 [0 ffffffff 16 800] [energy 2.545583 ei 0.451 es 0.000 et 0.000 er 0.004] ------- [11:255 -1:255 29 0] [0x2 2 17 [36 0] [22 36]] (REQUEST)
s 1.004778553 _18_ RTR  --- 0 AODV 48 [0 ffffffff 16 800] [energy 2.545583 ei 0.451 es 0.000 et 0.000 er 0.004] ------- [18:255 -1:255 29 0] [0x2 2 18 [14 0] [22 38]] (REQUEST)
s 1.005355153 _18_ RTR  --- 0 AODV 48 [0 ffffffff 16 800] [energy 2.545583 ei 0.451 es 0.000 et 0.000 er 0.004] ------- [18:255 -1:255 29 0] [0x2 2 1 [17 0] [22 4]] (REQUEST)
s 1.005538151 _29_ RTR  --- 0 AODV 48 [0 ffffffff 16 800] [energy 2.545583 ei 0.451 es 0.000 et 0.000 er 0.004] ------- [29:255 -1:255 29 0] [0x2 2 17 [36 0] [22 36]] (REQUEST)
r 1.005600195 _11_ RTR  --- 0 AODV 48 [0 ffffffff 16 800] [energy 2.545583 ei 0.451 es 0.000 et 0.000 er 0.004] ------- [22:255 -1:255 30 0] [0x2 1 15 [10 0] [22 32]] (REQUEST)
r 1.005600297 _18_ RTR  --- 0 AODV 48 [0 ffffffff 16 800] [energy 2.545583 ei 0.451 es 0.000 et 0.000 er 0.004] ------- [22:255 -1:255 30 0] [0x2 1 15 [10 0] [22 32]] (REQUEST)
r 1.005600498 _29_ RTR  --- 0 AODV 48 [0 ffffffff 16 800] [energy 2.545583 ei 0.451 es 0.000 et 0.000 er 0.004] ------- [22:255 -1:255 30 0] [0x2 1 15 [10 0] [22 32]] (REQUEST)
r 1.005600631 _24_ RTR  --- 0 AODV 48 [0 ffffffff 16 800] [energy 2.545583 ei 0.451 es 0.000 et 0.000 er 0.004] ------- [22:255 -1:255 30 0] [0x2 1 15 [10 0] [22 32]] (REQUEST)
r 1.005600732 _30_ RTR  --- 0 AODV 48 [0 ffffffff 16 800] [energy 2.545583 ei 0.451 es 0.000 et 0.000 er 0.004] ------- [22:255 -1:255 30 0] [0x2 1 15 [10 0] [22 32]] (REQUEST)
r 1.005600764 _33_ RTR  --- 0 AODV 48 [0 ffffffff 16 800] [energy 2.545583 ei 0.451 es 0.000 et 0.000 er 0.004] ------- [22:255 -1:255 30 0] [0x2 1 15 [10 0] [22 32]] (REQUEST)
N -t 1.005626 -n 24 -e 2.544797
N -t 1.005626 -n 22 -e 2.546493
N -t 1.005626 -n 6 -e 2.544797
N -t 1.005626 -n 11 -e 2.544797
N -t 1.005626 -n 31 -e 2.544797
N -t 1.005626 -n 18 -e 2.544797
N -t 1.005626 -n 10 -e 2.544797
N -t 1.005626 -n 4 -e 2.544797
N -t 1.005626 -n 30 -e 2.544797
N -t 1.005627 -n 34 -e 2.544797
N -t 1.005627 -n 35 -e 2.544797
N -t 1.005627 -n 3 -e 2.544797
N -t 1.005627 -n 1 -e 2.544797
N -t 1.005627 -n 33 -e 2.544797
N -t 1.005627 -n 37 -e 2.544797
N -t 1.005627 -n 9 -e 2.544797
N -t 1.005627 -n 36 -e 2.544797
N -t 1.005627 -n 7 -e 2.544797
s 1.005873666 _24_ RTR  --- 0 AODV 48 [0 ffffffff 16 800] [energy 2.544797 ei 0.451 es 0.000 et 0.000 er 0.005] ------- [24:255 -1:255 29 0] [0x2 2 16 [28 0] [22 34]] (REQUEST)
s 1.005876205 _24_ RTR  --- 0 AODV 48 [0 ffffffff 16 800] [energy 2.544797 ei 0.451 es 0.000 et 0.000 er 0.005] ------- [24:255 -1:255 29 0] [0x2 2 15 [10 0] [22 32]] (REQUEST)
s 1.005929790 _24_ RTR  --- 0 AODV 48 [0 ffffffff 16 800] [energy 2.544797 ei 0.451 es 0.000 et 0.000 er 0.005] ------- [24:255 -1:255 29 0] [0x2 2 1 [17 0] [22 4]] (REQUEST)
s 1.006454986 _29_ RTR  --- 0 AODV 48 [0 ffffffff 16 800] [energy 2.545137 ei 0.451 es 0.000 et 0.000 er 0.004] ------- [29:255 -1:255 29 0] [0x2 2 1 [17 0] [22 4]] (REQUEST)
r 1.006498964 _24_ RTR  --- 0 AODV 48 [0 ffffffff 1d 800] [energy 2.544797 ei 0.451 es 0.000 et 0.000 er 0.005] ------- [29:255 -1:255 29 0] [0x2 2 17 [36 0] [22 36]] (REQUEST)
r 1.006498997 _22_ RTR  --- 0 AODV 48 [0 ffffffff 1d 800] [energy 2.546493 ei 0.451 es 0.000 et 0.002 er 0.001] ------- [29:255 -1:255 29 0] [0x2 2 17 [36 0] [22 36]] (REQUEST)
r 1.006499092 _6_ RTR  --- 0 AODV 48 [0 ffffffff 1d 800] [energy 2.544797 ei 0.451 es 0.000 et 0.000 er 0.005] ------- [29:255 -1:255 29 0] [0x2 2 17 [36 0] [22 36]] (REQUEST)
r 1.006499116 _11_ RTR  --- 0 AODV 48 [0 ffffffff 1d 800] [energy 2.544797 ei 0.451 es 0.000 et 0.000 er 0.005] ------- [29:255 -1:255 29 0] [0x2 2 17 [36 0] [22 36]] (REQUEST)
r 1.006499228 _31_ RTR  --- 0 AODV 48 [0 ffffffff 1d 800] [energy 2.544797 ei 0.451 es 0.000 et 0.000 er 0.005] ------- [29:255 -1:255 29 0] [0x2 2 17 [36 0] [22 36]] (REQUEST)
r 1.006499242 _18_ RTR  --- 0 AODV 48 [0 ffffffff 1d 800] [energy 2.544797 ei 0.451 es 0.000 et 0.000 er 0.005] ------- [29:255 -1:255 29 0] [0x2 2 17 [36 0] [22 36]] (REQUEST)
r 1.006499272 _10_ RTR  --- 0 AODV 48 [0 ffffffff 1d 800] [energy 2.544797 ei 0.451 es 0.000 et 0.000 er 0.005] ------- [29:255 -1:255 29 0] [0x2 2 17 [36 0] [22 36]] (REQUEST)
r 1.006499328 _4_ RTR  --- 0 AODV 48 [0 ffffffff 1d 800] [energy 2.544797 ei 0.451 es 0.000 et 0.000 er 0.005] ------- [29:255 -1:255 29 0] [0x2 2 17 [36 0] [22 36]] (REQUEST)
N -t 1.006744 -n 11 -e 2.543912
N -t 1.006744 -n 18 -e 2.543912
N -t 1.006744 -n 29 -e 2.544251
N -t 1.006745 -n 24 -e 2.543912
N -t 1.006745 -n 30 -e 2.543912
N -t 1.006745 -n 33 -e 2.543912
N -t 1.006745 -n 31 -e 2.543912
N -t 1.006745 -n 35 -e 2.543912
N -t 1.006745 -n 34 -e 2.543912
N -t 1.006745 -n 6 -e 2.543912
N -t 1.006745 -n 4 -e 2.543912
N -t 1.006745 -n 10 -e 2.543912
N -t 1.006745 -n 7 -e 2.543912
N -t 1.006745 -n 1 -e 2.543912
N -t 1.006746 -n 9 -e 2.543912
N -t 1.006746 -n 3 -e 2.543912
N -t 1.006746 -n 27 -e 2.544293
N -t 1.006746 -n 36 -e 2.543912
N -t 1.006746 -n 37 -e 2.543912
s 1.007212701 _33_ RTR  --- 0 AODV 48 [0 ffffffff 16 800] [energy 2.543912 ei 0.451 es 0.000 et 0.000 er 0.005] ------- [33:255 -1:255 29 0] [0x2 2 16 [28 0] [22 34]] (REQUEST)
s 1.007462907 _33_ RTR  --- 0 AODV 48 [0 ffffffff 16 800] [energy 2.543912 ei 0.451 es 0.000 et 0.000 er 0.005] ------- [33:255 -1:255 29 0] [0x2 2 15 [10 0] [22 32]] (REQUEST)
r 1.007617192 _11_ RTR  --- 0 AODV 48 [0 ffffffff 16 800] [energy 2.543912 ei 0.451 es 0.000 et 0.000 er 0.005] ------- [22:255 -1:255 30 0] [0x2 1 14 [5 0] [22 30]] (REQUEST)
r 1.007617293 _18_ RTR  --- 0 AODV 48 [0 ffffffff 16 800] [energy 2.543912 ei 0.451 es 0.000 et 0.000 er 0.005] ------- [22:255 -1:255 30 0] [0x2 1 14 [5 0] [22 30]] (REQUEST)
r 1.007617495 _29_ RTR  --- 0 AODV 48 [0 ffffffff 16 800] [energy 2.544251 ei 0.451 es 0.000 et 0.000 er 0.005] ------- [22:255 -1:255 30 0] [0x2 1 14 [5 0] [22 30]] (REQUEST)
r 1.007617627 _24_ RTR  --- 0 AODV 48 [0 ffffffff 16 800] [energy 2.543912 ei 0.451 es 0.000 et 0.000 er 0.005] ------- [22:255 -1:255 30 0] [0x2 1 14 [5 0] [22 30]] (REQUEST)
r 1.007617729 _30_ RTR  --- 0 AODV 48 [0 ffffffff 16 800] [energy 2.543912 ei 0.451 es 0.000 et 0.000 er 0.005] ------- [22:255 -1:255 30 0] [0x2 1 14 [5 0] [22 30]] (REQUEST)
r 1.007617761 _33_ RTR  --- 0 AODV 48 [0 ffffffff 16 800] [energy 2.543912 ei 0.451 es 0.000 et 0.000 er 0.005] ------- [22:255 -1:255 30 0] [0x2 1 14 [5 0] [22 30]] (REQUEST)
N -t 1.007663 -n 31 -e 2.543117
N -t 1.007663 -n 29 -e 2.543456
N -t 1.007663 -n 4 -e 2.543117
N -t 1.007663 -n 34 -e 2.543117
N -t 1.007663 -n 11 -e 2.543117
N -t 1.007663 -n 22 -e 2.545152
N -t 1.007663 -n 35 -e 2.543117
N -t 1.007663 -n 6 -e 2.543117
N -t 1.007663 -n 10 -e 2.543117
N -t 1.007663 -n 1 -e 2.543117
N -t 1.007664 -n 9 -e 2.543117
N -t 1.007664 -n 18 -e 2.543117
N -t 1.007664 -n 36 -e 2.543117
N -t 1.007664 -n 33 -e 2.543117
N -t 1.007664 -n 3 -e 2.543117
N -t 1.007664 -n 30 -e 2.543117
N -t 1.007664 -n 37 -e 2.543117
N -t 1.007664 -n 27 -e 2.543498
N -t 1.007664 -n 7 -e 2.543117
N -t 1.007664 -n 17 -e 2.545788
s 1.007706372 _18_ RTR  --- 0 AODV 48 [0 ffffffff 16 800] [energy 2.543117 ei 0.451 es 0.000 et 0.000 er 0.006] ------- [18:255 -1:255 29 0] [0x2 2 17 [36 0] [22 36]] (REQUEST)
s 1.007999126 _29_ RTR  --- 0 AODV 48 [0 ffffffff 16 800] [energy 2.543456 ei 0.451 es 0.000 et 0.000 er 0.005] ------- [29:255 -1:255 29 0] [0x2 2 16 [28 0] [22 34]] (REQUEST)
s 1.008118627 _18_ RTR  --- 0 AODV 48 [0 ffffffff 16 800] [energy 2.543117 ei 0.451 es 0.000 et 0.000 er 0.006] ------- [18:255 -1:255 29 0] [0x2 2 14 [5 0] [22 30]] (REQUEST)
s 1.008191801 _30_ RTR  --- 0 AODV 48 [0 ffffffff 16 800] [energy 2.543117 ei 0.451 es 0.000 et 0.000 er 0.006] ------- [30:255 -1:255 29 0] [0x2 2 1 [17 0] [22 4]] (REQUEST)
s 1.008218437 _11_ RTR  --- 0 AODV 48 [0 ffffffff 16 800] [energy 2.543117 ei 0.451 es 0.000 et 0.000 er 0.006] ------- [11:255 -1:255 29 0] [0x2 2 15 [10 0] [22 32]] (REQUEST)
s 1.008286607 _4_ RTR  --- 0 AODV 48 [0 ffffffff 1d 800] [energy 2.543117 ei 0.451 es 0.000 et 0.000 er 0.006] ------- [4:255 -1:255 28 0] [0x2 3 17 [36 0] [22 36]] (REQUEST)
r 1.008535911 _31_ RTR  --- 0 AODV 48 [0 ffffffff 18 800] [energy 2.543117 ei 0.451 es 0.000 et 0.000 er 0.006] ------- [24:255 -1:255 29 0] [0x2 2 16 [28 0] [22 34]] (REQUEST)
r 1.008536093 _29_ RTR  --- 0 AODV 48 [0 ffffffff 18 800] [energy 2.543456 ei 0.451 es 0.000 et 0.000 er 0.005] ------- [24:255 -1:255 29 0] [0x2 2 16 [28 0] [22 34]] (REQUEST)
r 1.008536171 _4_ RTR  --- 0 AODV 48 [0 ffffffff 18 800] [energy 2.543117 ei 0.451 es 0.000 et 0.000 er 0.006] ------- [24:255 -1:255 29 0] [0x2 2 16 [28 0] [22 34]] (REQUEST)
r 1.008536220 _34_ RTR  --- 0 AODV 48 [0 ffffffff 18 800] [energy 2.543117 ei 0.451 es 0.000 et 0.000 er 0.006] ------- [24:255 -1:255 29 0] [0x2 2 16 [28 0] [22 34]] (REQUEST)
r 1.008536229 _11_ RTR  --- 0 AODV 48 [0 ffffffff 18 800] [energy 2.543117 ei 0.451 es 0.000 et 0.000 er 0.006] ------- [24:255 -1:255 29 0] [0x2 2 16 [28 0] [22 34]] (REQUEST)
r 1.008536258 _22_ RTR  --- 0 AODV 48 [0 ffffffff 18 800] [energy 2.545152 ei 0.451 es 0.000 et 0.003 er 0.002] ------- [24:255 -1:255 29 0] [0x2 2 16 [28 0] [22 34]] (REQUEST)
r 1.008536265 _35_ RTR  --- 0 AODV 48 [0 ffffffff 18 800] [energy 2.543117 ei 0.451 es 0.000 et 0.000 er 0.006] ------- [24:255 -1:255 29 0] [0x2 2 16 [28 0] [22 34]] (REQUEST)
r 1.008536290 _6_ RTR  --- 0 AODV 48 [0 ffffffff 18 800] [energy 2.543117 ei 0.451 es 0.000 et 0.000 er 0.006] ------- [24:255 -1:255 29 0] [0x2 2 16 [28 0] [22 34]] (REQUEST)
r 1.008536362 _10_ RTR  --- 0 AODV 48 [0 ffffffff 18 800] [energy 2.543117 ei 0.451 es 0.000 et 0.000 er 0.006] ------- [24:255 -1:255 29 0] [0x2 2 16 [28 0] [22 34]] (REQUEST)
r 1.008536405 _1_ RTR  --- 0 AODV 48 [0 ffffffff 18 800] [energy 2.543117 ei 0.451 es 0.000 et 0.000 er 0.006] ------- [24:255 -1:255 29 0] [0x2 2 16 [28 0] [22 34]] (REQUEST)
s 1.008566569 _31_ RTR  --- 0 AODV 48 [0 ffffffff 1d 800] [energy 2.543117 ei 0.451 es 0.000 et 0.000 er 0.006] ------- [31:255 -1:255 28 0] [0x2 3 17 [36 0] [22 36]] (REQUEST)
N -t 1.008621 -n 31 -e 2.542305
N -t 1.008621 -n 29 -e 2.542983
N -t 1.008621 -n 4 -e 2.542304
N -t 1.008621 -n 34 -e 2.542304
N -t 1.008621 -n 11 -e 2.542304
N -t 1.008621 -n 22 -e 2.544340
N -t 1.008621 -n 35 -e 2.542304
N -t 1.008621 -n 6 -e 2.542304
N -t 1.008621 -n 10 -e 2.542304
N -t 1.008621 -n 1 -e 2.542304
N -t 1.008622 -n 9 -e 2.542304
N -t 1.008622 -n 18 -e 2.542304
N -t 1.008622 -n 24 -e 2.542982
N -t 1.008622 -n 22 -e 2.544339
N -t 1.008622 -n 36 -e 2.542304
N -t 1.008622 -n 6 -e 2.542304
N -t 1.008622 -n 11 -e 2.542304
N -t 1.008622 -n 33 -e 2.542304
N -t 1.008622 -n 3 -e 2.542304
N -t 1.008622 -n 31 -e 2.542304
N -t 1.008622 -n 18 -e 2.542304
N -t 1.008622 -n 10 -e 2.542304
N -t 1.008622 -n 4 -e 2.542304
N -t 1.008622 -n 30 -e 2.542304
N -t 1.008622 -n 37 -e 2.542304
N -t 1.008622 -n 27 -e 2.542686
N -t 1.008622 -n 30 -e 2.542304
N -t 1.008622 -n 34 -e 2.542304
N -t 1.008622 -n 35 -e 2.542304
N -t 1.008622 -n 3 -e 2.542304
N -t 1.008622 -n 7 -e 2.542304
N -t 1.008622 -n 1 -e 2.542304
N -t 1.008622 -n 33 -e 2.542304
N -t 1.008622 -n 37 -e 2.542304
N -t 1.008622 -n 9 -e 2.542304
N -t 1.008622 -n 17 -e 2.544975
N -t 1.008623 -n 36 -e 2.542303
N -t 1.008623 -n 7 -e 2.542303
s 1.008873902 _30_ RTR  --- 0 AODV 48 [0 ffffffff 16 800] [energy 2.542304 ei 0.451 es 0.000 et 0.000 er 0.007] ------- [30:255 -1:255 29 0] [0x2 2 15 [10 0] [22 32]] (REQUEST)
s 1.009140120 _24_ RTR  --- 0 AODV 48 [0 ffffffff 16 800] [energy 2.542982 ei 0.451 es 0.000 et 0.001 er 0.005] ------- [24:255 -1:255 29 0] [0x2 2 18 [14 0] [22 38]] (REQUEST)
r 1.009493911 _31_ RTR  --- 0 AODV 48 [0 ffffffff 18 800] [energy 2.542304 ei 0.451 es 0.000 et 0.000 er 0.007] ------- [24:255 -1:255 29 0] [0x2 2 1 [17 0] [22 4]] (REQUEST)
s 1.009857371 _29_ RTR  --- 0 AODV 48 [0 ffffffff 16 800] [energy 2.542983 ei 0.451 es 0.000 et 0.001 er 0.005] ------- [29:255 -1:255 29 0] [0x2 2 15 [10 0] [22 32]] (REQUEST)
s 1.009889437 _33_ RTR  --- 0 AODV 48 [0 ffffffff 16 800] [energy 2.542304 ei 0.451 es 0.000 et 0.000 er 0.007] ------- [33:255 -1:255 29 0] [0x2 2 1 [17 0] [22 4]] (REQUEST)
N -t 1.009985 -n 7 -e 2.541309
N -t 1.009985 -n 11 -e 2.541309
N -t 1.009985 -n 18 -e 2.541309
N -t 1.009985 -n 22 -e 2.543344
N -t 1.009985 -n 35 -e 2.541309
N -t 1.009985 -n 34 -e 2.541309
N -t 1.009985 -n 24 -e 2.541987
N -t 1.009986 -n 30 -e 2.541309
N -t 1.009986 -n 29 -e 2.541987
N -t 1.009986 -n 31 -e 2.541308
N -t 1.009986 -n 27 -e 2.541690
N -t 1.009986 -n 19 -e 2.544743
N -t 1.009986 -n 16 -e 2.544743
N -t 1.009986 -n 1 -e 2.541308
N -t 1.009986 -n 28 -e 2.544743
N -t 1.009986 -n 38 -e 2.544743
N -t 1.009986 -n 4 -e 2.541308
N -t 1.009986 -n 6 -e 2.541309
s 1.009989051 _30_ RTR  --- 0 AODV 48 [0 ffffffff 16 800] [energy 2.541309 ei 0.451 es 0.000 et 0.000 er 0.008] ------- [30:255 -1:255 29 0] [0x2 2 18 [14 0] [22 38]] (REQUEST)
s 1.010592570 _18_ RTR  --- 0 AODV 48 [0 ffffffff 16 800] [energy 2.541309 ei 0.451 es 0.000 et 0.000 er 0.008] ------- [18:255 -1:255 29 0] [0x2 2 16 [28 0] [22 34]] (REQUEST)
r 1.010857866 _7_ RTR  --- 0 AODV 48 [0 ffffffff 21 800] [energy 2.541309 ei 0.451 es 0.000 et 0.000 er 0.008] ------- [33:255 -1:255 29 0] [0x2 2 16 [28 0] [22 34]] (REQUEST)
r 1.010857927 _11_ RTR  --- 0 AODV 48 [0 ffffffff 21 800] [energy 2.541309 ei 0.451 es 0.000 et 0.000 er 0.008] ------- [33:255 -1:255 29 0] [0x2 2 16 [28 0] [22 34]] (REQUEST)
r 1.010858042 _18_ RTR  --- 0 AODV 48 [0 ffffffff 21 800] [energy 2.541309 ei 0.451 es 0.000 et 0.000 er 0.008] ------- [33:255 -1:255 29 0] [0x2 2 16 [28 0] [22 34]] (REQUEST)