s 0.090775603 _5_ RTR  --- 0 message 32 [0 0 0 0] ------- [5:255 -1:255 32 0] 
r 0.091775770 _1_ RTR  --- 0 message 32 [0 ffffffff 5 800] ------- [5:255 -1:255 32 0] 
r 0.091775770 _4_ RTR  --- 0 message 32 [0 ffffffff 5 800] ------- [5:255 -1:255 32 0] 
r 0.091775770 _9_ RTR  --- 0 message 32 [0 ffffffff 5 800] ------- [5:255 -1:255 32 0] 
r 0.091775770 _6_ RTR  --- 0 message 32 [0 ffffffff 5 800] ------- [5:255 -1:255 32 0] 
r 0.091775839 _8_ RTR  --- 0 message 32 [0 ffffffff 5 800] ------- [5:255 -1:255 32 0] 
r 0.091775839 _0_ RTR  --- 0 message 32 [0 ffffffff 5 800] ------- [5:255 -1:255 32 0] 
r 0.091775839 _2_ RTR  --- 0 message 32 [0 ffffffff 5 800] ------- [5:255 -1:255 32 0] 
r 0.091775839 _10_ RTR  --- 0 message 32 [0 ffffffff 5 800] ------- [5:255 -1:255 32 0] 
r 0.091775937 _13_ RTR  --- 0 message 32 [0 ffffffff 5 800] ------- [5:255 -1:255 32 0] 
r 0.091775937 _7_ RTR  --- 0 message 32 [0 ffffffff 5 800] ------- [5:255 -1:255 32 0] 
r 0.091775976 _12_ RTR  --- 0 message 32 [0 ffffffff 5 800] ------- [5:255 -1:255 32 0] 
r 0.091775976 _14_ RTR  --- 0 message 32 [0 ffffffff 5 800] ------- [5:255 -1:255 32 0] 
r 0.091775976 _3_ RTR  --- 0 message 32 [0 ffffffff 5 800] ------- [5:255 -1:255 32 0] 
r 0.091775976 _11_ RTR  --- 0 message 32 [0 ffffffff 5 800] ------- [5:255 -1:255 32 0] 
r 0.091776075 _15_ RTR  --- 0 message 32 [0 ffffffff 5 800] ------- [5:255 -1:255 32 0] 
s 0.196675961 _11_ RTR  --- 1 message 32 [0 0 0 0] ------- [11:255 -1:255 32 0] 
r 0.197856128 _7_ RTR  --- 1 message 32 [0 ffffffff b 800] ------- [11:255 -1:255 32 0] 
r 0.197856128 _10_ RTR  --- 1 message 32 [0 ffffffff b 800] ------- [11:255 -1:255 32 0] 
r 0.197856128 _15_ RTR  --- 1 message 32 [0 ffffffff b 800] ------- [11:255 -1:255 32 0] 
r 0.197856197 _14_ RTR  --- 1 message 32 [0 ffffffff b 800] ------- [11:255 -1:255 32 0] 
r 0.197856197 _6_ RTR  --- 1 message 32 [0 ffffffff b 800] ------- [11:255 -1:255 32 0] 
r 0.197856294 _3_ RTR  --- 1 message 32 [0 ffffffff b 800] ------- [11:255 -1:255 32 0] 
r 0.197856294 _9_ RTR  --- 1 message 32 [0 ffffffff b 800] ------- [11:255 -1:255 32 0] 
r 0.197856334 _2_ RTR  --- 1 message 32 [0 ffffffff b 800] ------- [11:255 -1:255 32 0] 
r 0.197856334 _13_ RTR  --- 1 message 32 [0 ffffffff b 800] ------- [11:255 -1:255 32 0] 
r 0.197856334 _5_ RTR  --- 1 message 32 [0 ffffffff b 800] ------- [11:255 -1:255 32 0] 
r 0.197856433 _1_ RTR  --- 1 message 32 [0 ffffffff b 800] ------- [11:255 -1:255 32 0] 
r 0.197856461 _8_ RTR  --- 1 message 32 [0 ffffffff b 800] ------- [11:255 -1:255 32 0] 
r 0.197856488 _12_ RTR  --- 1 message 32 [0 ffffffff b 800] ------- [11:255 -1:255 32 0] 
r 0.197856488 _4_ RTR  --- 1 message 32 [0 ffffffff b 800] ------- [11:255 -1:255 32 0] 
r 0.197856562 _0_ RTR  --- 1 message 32 [0 ffffffff b 800] ------- [11:255 -1:255 32 0] 
s 0.234389987 _7_ RTR  --- 2 message 32 [0 0 0 0] ------- [7:255 -1:255 32 0] 
r 0.235350153 _3_ RTR  --- 2 message 32 [0 ffffffff 7 800] ------- [7:255 -1:255 32 0] 
r 0.235350153 _6_ RTR  --- 2 message 32 [0 ffffffff 7 800] ------- [7:255 -1:255 32 0] 
r 0.235350153 _11_ RTR  --- 2 message 32 [0 ffffffff 7 800] ------- [7:255 -1:255 32 0] 
r 0.235350222 _10_ RTR  --- 2 message 32 [0 ffffffff 7 800] ------- [7:255 -1:255 32 0] 
r 0.235350222 _2_ RTR  --- 2 message 32 [0 ffffffff 7 800] ------- [7:255 -1:255 32 0] 
r 0.235350320 _5_ RTR  --- 2 message 32 [0 ffffffff 7 800] ------- [7:255 -1:255 32 0] 
r 0.235350320 _15_ RTR  --- 2 message 32 [0 ffffffff 7 800] ------- [7:255 -1:255 32 0] 
r 0.235350359 _14_ RTR  --- 2 message 32 [0 ffffffff 7 800] ------- [7:255 -1:255 32 0] 
r 0.235350359 _9_ RTR  --- 2 message 32 [0 ffffffff 7 800] ------- [7:255 -1:255 32 0] 
r 0.235350359 _1_ RTR  --- 2 message 32 [0 ffffffff 7 800] ------- [7:255 -1:255 32 0] 
r 0.235350458 _13_ RTR  --- 2 message 32 [0 ffffffff 7 800] ------- [7:255 -1:255 32 0] 
r 0.235350487 _4_ RTR  --- 2 message 32 [0 ffffffff 7 800] ------- [7:255 -1:255 32 0] 
r 0.235350514 _8_ RTR  --- 2 message 32 [0 ffffffff 7 800] ------- [7:255 -1:255 32 0] 
r 0.235350514 _0_ RTR  --- 2 message 32 [0 ffffffff 7 800] ------- [7:255 -1:255 32 0] 
r 0.235350588 _12_ RTR  --- 2 message 32 [0 ffffffff 7 800] ------- [7:255 -1:255 32 0] 
s 0.329382798 _4_ RTR  --- 3 message 32 [0 0 0 0] ------- [4:255 -1:255 32 0] 
r 0.330302965 _0_ RTR  --- 3 message 32 [0 ffffffff 4 800] ------- [4:255 -1:255 32 0] 
r 0.330302965 _8_ RTR  --- 3 message 32 [0 ffffffff 4 800] ------- [4:255 -1:255 32 0] 
r 0.330302965 _5_ RTR  --- 3 message 32 [0 ffffffff 4 800] ------- [4:255 -1:255 32 0] 
r 0.330303034 _1_ RTR  --- 3 message 32 [0 ffffffff 4 800] ------- [4:255 -1:255 32 0] 
r 0.330303034 _9_ RTR  --- 3 message 32 [0 ffffffff 4 800] ------- [4:255 -1:255 32 0] 
r 0.330303131 _12_ RTR  --- 3 message 32 [0 ffffffff 4 800] ------- [4:255 -1:255 32 0] 
r 0.330303131 _6_ RTR  --- 3 message 32 [0 ffffffff 4 800] ------- [4:255 -1:255 32 0] 
r 0.330303171 _13_ RTR  --- 3 message 32 [0 ffffffff 4 800] ------- [4:255 -1:255 32 0] 
r 0.330303171 _2_ RTR  --- 3 message 32 [0 ffffffff 4 800] ------- [4:255 -1:255 32 0] 
r 0.330303171 _10_ RTR  --- 3 message 32 [0 ffffffff 4 800] ------- [4:255 -1:255 32 0] 
r 0.330303269 _14_ RTR  --- 3 message 32 [0 ffffffff 4 800] ------- [4:255 -1:255 32 0] 
r 0.330303298 _7_ RTR  --- 3 message 32 [0 ffffffff 4 800] ------- [4:255 -1:255 32 0] 
r 0.330303325 _3_ RTR  --- 3 message 32 [0 ffffffff 4 800] ------- [4:255 -1:255 32 0] 
r 0.330303325 _11_ RTR  --- 3 message 32 [0 ffffffff 4 800] ------- [4:255 -1:255 32 0] 
r 0.330303399 _15_ RTR  --- 3 message 32 [0 ffffffff 4 800] ------- [4:255 -1:255 32 0] 
s 0.359073157 _10_ RTR  --- 4 message 32 [0 0 0 0] ------- [10:255 -1:255 32 0] 
r 0.360473324 _6_ RTR  --- 4 message 32 [0 ffffffff a 800] ------- [10:255 -1:255 32 0] 
r 0.360473324 _9_ RTR  --- 4 message 32 [0 ffffffff a 800] ------- [10:255 -1:255 32 0] 
r 0.360473324 _14_ RTR  --- 4 message 32 [0 ffffffff a 800] ------- [10:255 -1:255 32 0] 
r 0.360473324 _11_ RTR  --- 4 message 32 [0 ffffffff a 800] ------- [10:255 -1:255 32 0] 
r 0.360473393 _13_ RTR  --- 4 message 32 [0 ffffffff a 800] ------- [10:255 -1:255 32 0] 
r 0.360473393 _5_ RTR  --- 4 message 32 [0 ffffffff a 800] ------- [10:255 -1:255 32 0] 
r 0.360473393 _7_ RTR  --- 4 message 32 [0 ffffffff a 800] ------- [10:255 -1:255 32 0] 
r 0.360473393 _15_ RTR  --- 4 message 32 [0 ffffffff a 800] ------- [10:255 -1:255 32 0] 
r 0.360473491 _2_ RTR  --- 4 message 32 [0 ffffffff a 800] ------- [10:255 -1:255 32 0] 
r 0.360473491 _8_ RTR  --- 4 message 32 [0 ffffffff a 800] ------- [10:255 -1:255 32 0] 
r 0.360473530 _1_ RTR  --- 4 message 32 [0 ffffffff a 800] ------- [10:255 -1:255 32 0] 
r 0.360473530 _12_ RTR  --- 4 message 32 [0 ffffffff a 800] ------- [10:255 -1:255 32 0] 
r 0.360473530 _4_ RTR  --- 4 message 32 [0 ffffffff a 800] ------- [10:255 -1:255 32 0] 
r 0.360473530 _3_ RTR  --- 4 message 32 [0 ffffffff a 800] ------- [10:255 -1:255 32 0] 
r 0.360473629 _0_ RTR  --- 4 message 32 [0 ffffffff a 800] ------- [10:255 -1:255 32 0] 
s 0.469311587 _0_ RTR  --- 5 message 32 [0 0 0 0] ------- [0:255 -1:255 32 0] 
r 0.470631754 _4_ RTR  --- 5 message 32 [0 ffffffff 0 800] ------- [0:255 -1:255 32 0] 
r 0.470631754 _1_ RTR  --- 5 message 32 [0 ffffffff 0 800] ------- [0:255 -1:255 32 0] 
r 0.470631823 _5_ RTR  --- 5 message 32 [0 ffffffff 0 800] ------- [0:255 -1:255 32 0] 
r 0.470631920 _8_ RTR  --- 5 message 32 [0 ffffffff 0 800] ------- [0:255 -1:255 32 0] 
r 0.470631920 _2_ RTR  --- 5 message 32 [0 ffffffff 0 800] ------- [0:255 -1:255 32 0] 
r 0.470631960 _9_ RTR  --- 5 message 32 [0 ffffffff 0 800] ------- [0:255 -1:255 32 0] 
r 0.470631960 _6_ RTR  --- 5 message 32 [0 ffffffff 0 800] ------- [0:255 -1:255 32 0] 
r 0.470632058 _10_ RTR  --- 5 message 32 [0 ffffffff 0 800] ------- [0:255 -1:255 32 0] 
r 0.470632087 _12_ RTR  --- 5 message 32 [0 ffffffff 0 800] ------- [0:255 -1:255 32 0] 
r 0.470632087 _3_ RTR  --- 5 message 32 [0 ffffffff 0 800] ------- [0:255 -1:255 32 0] 
r 0.470632114 _13_ RTR  --- 5 message 32 [0 ffffffff 0 800] ------- [0:255 -1:255 32 0] 
r 0.470632114 _7_ RTR  --- 5 message 32 [0 ffffffff 0 800] ------- [0:255 -1:255 32 0] 
r 0.470632188 _14_ RTR  --- 5 message 32 [0 ffffffff 0 800] ------- [0:255 -1:255 32 0] 
r 0.470632188 _11_ RTR  --- 5 message 32 [0 ffffffff 0 800] ------- [0:255 -1:255 32 0] 
r 0.470632294 _15_ RTR  --- 5 message 32 [0 ffffffff 0 800] ------- [0:255 -1:255 32 0] 
s 0.522862137 _14_ RTR  --- 6 message 32 [0 0 0 0] ------- [14:255 -1:255 32 0] 
r 0.524162303 _10_ RTR  --- 6 message 32 [0 ffffffff e 800] ------- [14:255 -1:255 32 0] 
r 0.524162303 _13_ RTR  --- 6 message 32 [0 ffffffff e 800] ------- [14:255 -1:255 32 0] 
r 0.524162303 _15_ RTR  --- 6 message 32 [0 ffffffff e 800] ------- [14:255 -1:255 32 0] 
r 0.524162372 _9_ RTR  --- 6 message 32 [0 ffffffff e 800] ------- [14:255 -1:255 32 0] 
r 0.524162372 _11_ RTR  --- 6 message 32 [0 ffffffff e 800] ------- [14:255 -1:255 32 0] 
r 0.524162470 _6_ RTR  --- 6 message 32 [0 ffffffff e 800] ------- [14:255 -1:255 32 0] 
r 0.524162470 _12_ RTR  --- 6 message 32 [0 ffffffff e 800] ------- [14:255 -1:255 32 0] 
r 0.524162509 _5_ RTR  --- 6 message 32 [0 ffffffff e 800] ------- [14:255 -1:255 32 0] 
r 0.524162509 _8_ RTR  --- 6 message 32 [0 ffffffff e 800] ------- [14:255 -1:255 32 0] 
r 0.524162509 _7_ RTR  --- 6 message 32 [0 ffffffff e 800] ------- [14:255 -1:255 32 0] 
r 0.524162608 _4_ RTR  --- 6 message 32 [0 ffffffff e 800] ------- [14:255 -1:255 32 0] 
r 0.524162637 _2_ RTR  --- 6 message 32 [0 ffffffff e 800] ------- [14:255 -1:255 32 0] 
r 0.524162664 _1_ RTR  --- 6 message 32 [0 ffffffff e 800] ------- [14:255 -1:255 32 0] 
r 0.524162664 _3_ RTR  --- 6 message 32 [0 ffffffff e 800] ------- [14:255 -1:255 32 0] 
r 0.524162737 _0_ RTR  --- 6 message 32 [0 ffffffff e 800] ------- [14:255 -1:255 32 0] 
s 0.626924672 _2_ RTR  --- 7 message 32 [0 0 0 0] ------- [2:255 -1:255 32 0] 
r 0.627904839 _1_ RTR  --- 7 message 32 [0 ffffffff 2 800] ------- [2:255 -1:255 32 0] 
r 0.627904839 _6_ RTR  --- 7 message 32 [0 ffffffff 2 800] ------- [2:255 -1:255 32 0] 
r 0.627904839 _3_ RTR  --- 7 message 32 [0 ffffffff 2 800] ------- [2:255 -1:255 32 0] 
r 0.627904908 _5_ RTR  --- 7 message 32 [0 ffffffff 2 800] ------- [2:255 -1:255 32 0] 
r 0.627904908 _7_ RTR  --- 7 message 32 [0 ffffffff 2 800] ------- [2:255 -1:255 32 0] 
r 0.627905006 _0_ RTR  --- 7 message 32 [0 ffffffff 2 800] ------- [2:255 -1:255 32 0] 
r 0.627905006 _10_ RTR  --- 7 message 32 [0 ffffffff 2 800] ------- [2:255 -1:255 32 0] 
r 0.627905045 _9_ RTR  --- 7 message 32 [0 ffffffff 2 800] ------- [2:255 -1:255 32 0] 
r 0.627905045 _4_ RTR  --- 7 message 32 [0 ffffffff 2 800] ------- [2:255 -1:255 32 0] 
r 0.627905045 _11_ RTR  --- 7 message 32 [0 ffffffff 2 800] ------- [2:255 -1:255 32 0] 
r 0.627905144 _8_ RTR  --- 7 message 32 [0 ffffffff 2 800] ------- [2:255 -1:255 32 0] 
r 0.627905172 _14_ RTR  --- 7 message 32 [0 ffffffff 2 800] ------- [2:255 -1:255 32 0] 
r 0.627905199 _13_ RTR  --- 7 message 32 [0 ffffffff 2 800] ------- [2:255 -1:255 32 0] 
r 0.627905199 _15_ RTR  --- 7 message 32 [0 ffffffff 2 800] ------- [2:255 -1:255 32 0] 
r 0.627905273 _12_ RTR  --- 7 message 32 [0 ffffffff 2 800] ------- [2:255 -1:255 32 0] 
s 0.697757626 _13_ RTR  --- 8 message 32 [0 0 0 0] ------- [13:255 -1:255 32 0] 
r 0.698577793 _9_ RTR  --- 8 message 32 [0 ffffffff d 800] ------- [13:255 -1:255 32 0] 
r 0.698577793 _12_ RTR  --- 8 message 32 [0 ffffffff d 800] ------- [13:255 -1:255 32 0] 
r 0.698577793 _14_ RTR  --- 8 message 32 [0 ffffffff d 800] ------- [13:255 -1:255 32 0] 
r 0.698577862 _8_ RTR  --- 8 message 32 [0 ffffffff d 800] ------- [13:255 -1:255 32 0] 
r 0.698577862 _10_ RTR  --- 8 message 32 [0 ffffffff d 800] ------- [13:255 -1:255 32 0] 
r 0.698577959 _5_ RTR  --- 8 message 32 [0 ffffffff d 800] ------- [13:255 -1:255 32 0] 
r 0.698577959 _15_ RTR  --- 8 message 32 [0 ffffffff d 800] ------- [13:255 -1:255 32 0] 
r 0.698577999 _4_ RTR  --- 8 message 32 [0 ffffffff d 800] ------- [13:255 -1:255 32 0] 
r 0.698577999 _6_ RTR  --- 8 message 32 [0 ffffffff d 800] ------- [13:255 -1:255 32 0] 
r 0.698577999 _11_ RTR  --- 8 message 32 [0 ffffffff d 800] ------- [13:255 -1:255 32 0] 
r 0.698578097 _7_ RTR  --- 8 message 32 [0 ffffffff d 800] ------- [13:255 -1:255 32 0] 
r 0.698578126 _1_ RTR  --- 8 message 32 [0 ffffffff d 800] ------- [13:255 -1:255 32 0] 
r 0.698578153 _0_ RTR  --- 8 message 32 [0 ffffffff d 800] ------- [13:255 -1:255 32 0] 
r 0.698578153 _2_ RTR  --- 8 message 32 [0 ffffffff d 800] ------- [13:255 -1:255 32 0] 
r 0.698578227 _3_ RTR  --- 8 message 32 [0 ffffffff d 800] ------- [13:255 -1:255 32 0] 
s 0.826839514 _15_ RTR  --- 9 message 32 [0 0 0 0] ------- [15:255 -1:255 32 0] 
r 0.827679681 _11_ RTR  --- 9 message 32 [0 ffffffff f 800] ------- [15:255 -1:255 32 0] 
r 0.827679681 _14_ RTR  --- 9 message 32 [0 ffffffff f 800] ------- [15:255 -1:255 32 0] 
r 0.827679750 _10_ RTR  --- 9 message 32 [0 ffffffff f 800] ------- [15:255 -1:255 32 0] 
r 0.827679847 _7_ RTR  --- 9 message 32 [0 ffffffff f 800] ------- [15:255 -1:255 32 0] 
r 0.827679847 _13_ RTR  --- 9 message 32 [0 ffffffff f 800] ------- [15:255 -1:255 32 0] 
r 0.827679887 _6_ RTR  --- 9 message 32 [0 ffffffff f 800] ------- [15:255 -1:255 32 0] 
r 0.827679887 _9_ RTR  --- 9 message 32 [0 ffffffff f 800] ------- [15:255 -1:255 32 0] 
r 0.827679985 _5_ RTR  --- 9 message 32 [0 ffffffff f 800] ------- [15:255 -1:255 32 0] 
r 0.827680014 _3_ RTR  --- 9 message 32 [0 ffffffff f 800] ------- [15:255 -1:255 32 0] 
r 0.827680014 _12_ RTR  --- 9 message 32 [0 ffffffff f 800] ------- [15:255 -1:255 32 0] 
r 0.827680041 _2_ RTR  --- 9 message 32 [0 ffffffff f 800] ------- [15:255 -1:255 32 0] 
r 0.827680041 _8_ RTR  --- 9 message 32 [0 ffffffff f 800] ------- [15:255 -1:255 32 0] 
r 0.827680115 _1_ RTR  --- 9 message 32 [0 ffffffff f 800] ------- [15:255 -1:255 32 0] 
r 0.827680115 _4_ RTR  --- 9 message 32 [0 ffffffff f 800] ------- [15:255 -1:255 32 0] 
r 0.827680221 _0_ RTR  --- 9 message 32 [0 ffffffff f 800] ------- [15:255 -1:255 32 0] 
s 0.849100751 _9_ RTR  --- 10 message 32 [0 0 0 0] ------- [9:255 -1:255 32 0] 
r 0.850220918 _5_ RTR  --- 10 message 32 [0 ffffffff 9 800] ------- [9:255 -1:255 32 0] 
r 0.850220918 _8_ RTR  --- 10 message 32 [0 ffffffff 9 800] ------- [9:255 -1:255 32 0] 
r 0.850220918 _13_ RTR  --- 10 message 32 [0 ffffffff 9 800] ------- [9:255 -1:255 32 0] 
r 0.850220918 _10_ RTR  --- 10 message 32 [0 ffffffff 9 800] ------- [9:255 -1:255 32 0] 
r 0.850220987 _12_ RTR  --- 10 message 32 [0 ffffffff 9 800] ------- [9:255 -1:255 32 0] 
r 0.850220987 _4_ RTR  --- 10 message 32 [0 ffffffff 9 800] ------- [9:255 -1:255 32 0] 
r 0.850220987 _6_ RTR  --- 10 message 32 [0 ffffffff 9 800] ------- [9:255 -1:255 32 0] 
r 0.850220987 _14_ RTR  --- 10 message 32 [0 ffffffff 9 800] ------- [9:255 -1:255 32 0] 
r 0.850221084 _1_ RTR  --- 10 message 32 [0 ffffffff 9 800] ------- [9:255 -1:255 32 0] 
r 0.850221084 _11_ RTR  --- 10 message 32 [0 ffffffff 9 800] ------- [9:255 -1:255 32 0] 
r 0.850221124 _0_ RTR  --- 10 message 32 [0 ffffffff 9 800] ------- [9:255 -1:255 32 0] 
r 0.850221124 _2_ RTR  --- 10 message 32 [0 ffffffff 9 800] ------- [9:255 -1:255 32 0] 
r 0.850221124 _7_ RTR  --- 10 message 32 [0 ffffffff 9 800] ------- [9:255 -1:255 32 0] 
r 0.850221124 _15_ RTR  --- 10 message 32 [0 ffffffff 9 800] ------- [9:255 -1:255 32 0] 
r 0.850221222 _3_ RTR  --- 10 message 32 [0 ffffffff 9 800] ------- [9:255 -1:255 32 0] 
s 1.000000000 _0_ AGT  --- 11 tcp 40 [0 0 0 0] ------- [0:0 8:0 32 0] [0 0] 0 0
r 1.000000000 _0_ RTR  --- 11 tcp 40 [0 0 0 0] ------- [0:0 8:0 32 0] [0 0] 0 0
s 1.000000000 _1_ AGT  --- 12 tcp 40 [0 0 0 0] ------- [1:0 9:0 32 0] [0 0] 0 0
r 1.000000000 _1_ RTR  --- 12 tcp 40 [0 0 0 0] ------- [1:0 9:0 32 0] [0 0] 0 0
s 1.000000000 _1_ RTR  --- 12 tcp 60 [0 0 0 0] ------- [1:0 9:0 32 9] [0 0] 0 0
s 1.000000000 _2_ AGT  --- 13 tcp 40 [0 0 0 0] ------- [2:0 10:0 32 0] [0 0] 0 0
r 1.000000000 _2_ RTR  --- 13 tcp 40 [0 0 0 0] ------- [2:0 10:0 32 0] [0 0] 0 0
s 1.000000000 _2_ RTR  --- 13 tcp 60 [0 0 0 0] ------- [2:0 10:0 32 10] [0 0] 0 0
s 1.000000000 _3_ AGT  --- 14 tcp 40 [0 0 0 0] ------- [3:0 11:0 32 0] [0 0] 0 0
r 1.000000000 _3_ RTR  --- 14 tcp 40 [0 0 0 0] ------- [3:0 11:0 32 0] [0 0] 0 0
s 1.000000000 _3_ RTR  --- 14 tcp 60 [0 0 0 0] ------- [3:0 11:0 32 11] [0 0] 0 0
s 1.000000000 _4_ AGT  --- 15 tcp 40 [0 0 0 0] ------- [4:0 12:0 32 0] [0 0] 0 0
r 1.000000000 _4_ RTR  --- 15 tcp 40 [0 0 0 0] ------- [4:0 12:0 32 0] [0 0] 0 0
s 1.000000000 _5_ AGT  --- 16 tcp 40 [0 0 0 0] ------- [5:0 13:0 32 0] [0 0] 0 0
r 1.000000000 _5_ RTR  --- 16 tcp 40 [0 0 0 0] ------- [5:0 13:0 32 0] [0 0] 0 0
s 1.000000000 _5_ RTR  --- 16 tcp 60 [0 0 0 0] ------- [5:0 13:0 32 13] [0 0] 0 0
s 1.000000000 _6_ AGT  --- 17 tcp 40 [0 0 0 0] ------- [6:0 14:0 32 0] [0 0] 0 0
r 1.000000000 _6_ RTR  --- 17 tcp 40 [0 0 0 0] ------- [6:0 14:0 32 0] [0 0] 0 0
s 1.000000000 _6_ RTR  --- 17 tcp 60 [0 0 0 0] ------- [6:0 14:0 32 14] [0 0] 0 0
s 1.000000000 _7_ AGT  --- 18 tcp 40 [0 0 0 0] ------- [7:0 15:0 32 0] [0 0] 0 0
r 1.000000000 _7_ RTR  --- 18 tcp 40 [0 0 0 0] ------- [7:0 15:0 32 0] [0 0] 0 0
s 1.000000000 _7_ RTR  --- 18 tcp 60 [0 0 0 0] ------- [7:0 15:0 32 15] [0 0] 0 0
r 1.007765471 _14_ AGT  --- 17 tcp 60 [13a e 6 800] ------- [6:0 14:0 32 14] [0 0] 1 0
s 1.007765471 _14_ AGT  --- 19 ack 40 [0 0 0 0] ------- [14:0 6:0 32 0] [0 0] 0 0
r 1.007765471 _14_ RTR  --- 19 ack 40 [0 0 0 0] ------- [14:0 6:0 32 0] [0 0] 0 0
r 1.016402303 _15_ AGT  --- 18 tcp 60 [13a f 7 800] ------- [7:0 15:0 32 15] [0 0] 1 0
s 1.016402303 _15_ AGT  --- 20 ack 40 [0 0 0 0] ------- [15:0 7:0 32 0] [0 0] 0 0
r 1.016402303 _15_ RTR  --- 20 ack 40 [0 0 0 0] ------- [15:0 7:0 32 0] [0 0] 0 0
s 1.016402303 _15_ RTR  --- 20 ack 60 [0 0 0 0] ------- [15:0 7:0 32 7] [0 0] 0 0
r 1.018507904 _9_ AGT  --- 12 tcp 60 [13a 9 1 800] ------- [1:0 9:0 32 9] [0 0] 1 0
s 1.018507904 _9_ AGT  --- 21 ack 40 [0 0 0 0] ------- [9:0 1:0 32 0] [0 0] 0 0
r 1.018507904 _9_ RTR  --- 21 ack 40 [0 0 0 0] ------- [9:0 1:0 32 0] [0 0] 0 0
r 1.023328778 _7_ AGT  --- 20 ack 60 [13a 7 f 800] ------- [15:0 7:0 32 7] [0 0] 1 0
s 1.023328778 _7_ AGT  --- 22 tcp 1040 [0 0 0 0] ------- [7:0 15:0 32 0] [1 0] 0 0
r 1.023328778 _7_ RTR  --- 22 tcp 1040 [0 0 0 0] ------- [7:0 15:0 32 0] [1 0] 0 0
s 1.023328778 _7_ RTR  --- 22 tcp 1060 [0 0 0 0] ------- [7:0 15:0 32 15] [1 0] 0 0
s 1.023328778 _7_ AGT  --- 23 tcp 1040 [0 0 0 0] ------- [7:0 15:0 32 0] [2 0] 0 0
r 1.023328778 _7_ RTR  --- 23 tcp 1040 [0 0 0 0] ------- [7:0 15:0 32 0] [2 0] 0 0
s 1.023328778 _7_ RTR  --- 23 tcp 1060 [0 0 0 0] ------- [7:0 15:0 32 15] [2 0] 0 0
r 1.025354014 _10_ AGT  --- 13 tcp 60 [13a a 2 800] ------- [2:0 10:0 32 10] [0 0] 1 0
s 1.025354014 _10_ AGT  --- 24 ack 40 [0 0 0 0] ------- [10:0 2:0 32 0] [0 0] 0 0
r 1.025354014 _10_ RTR  --- 24 ack 40 [0 0 0 0] ------- [10:0 2:0 32 0] [0 0] 0 0
s 1.025354014 _10_ RTR  --- 24 ack 60 [0 0 0 0] ------- [10:0 2:0 32 2] [0 0] 0 0
r 1.035659249 _15_ AGT  --- 22 tcp 1060 [13a f 7 800] ------- [7:0 15:0 32 15] [1 0] 1 0
s 1.035659249 _15_ AGT  --- 25 ack 40 [0 0 0 0] ------- [15:0 7:0 32 0] [1 0] 0 0
r 1.035659249 _15_ RTR  --- 25 ack 40 [0 0 0 0] ------- [15:0 7:0 32 0] [1 0] 0 0
s 1.035659249 _15_ RTR  --- 25 ack 60 [0 0 0 0] ------- [15:0 7:0 32 7] [1 0] 0 0
r 1.037744485 _2_ AGT  --- 24 ack 60 [13a 2 a 800] ------- [10:0 2:0 32 2] [0 0] 1 0
s 1.037744485 _2_ AGT  --- 26 tcp 1040 [0 0 0 0] ------- [2:0 10:0 32 0] [1 0] 0 0
r 1.037744485 _2_ RTR  --- 26 tcp 1040 [0 0 0 0] ------- [2:0 10:0 32 0] [1 0] 0 0
s 1.037744485 _2_ RTR  --- 26 tcp 1060 [0 0 0 0] ------- [2:0 10:0 32 10] [1 0] 0 0
s 1.037744485 _2_ AGT  --- 27 tcp 1040 [0 0 0 0] ------- [2:0 10:0 32 0] [2 0] 0 0
r 1.037744485 _2_ RTR  --- 27 tcp 1040 [0 0 0 0] ------- [2:0 10:0 32 0] [2 0] 0 0
s 1.037744485 _2_ RTR  --- 27 tcp 1060 [0 0 0 0] ------- [2:0 10:0 32 10] [2 0] 0 0
r 1.047789721 _15_ AGT  --- 23 tcp 1060 [13a f 7 800] ------- [7:0 15:0 32 15] [2 0] 1 0
s 1.047789721 _15_ AGT  --- 28 ack 40 [0 0 0 0] ------- [15:0 7:0 32 0] [2 0] 0 0
r 1.047789721 _15_ RTR  --- 28 ack 40 [0 0 0 0] ------- [15:0 7:0 32 0] [2 0] 0 0
s 1.047789721 _15_ RTR  --- 28 ack 60 [0 0 0 0] ------- [15:0 7:0 32 7] [2 0] 0 0
r 1.057795248 _10_ AGT  --- 26 tcp 1060 [13a a 2 800] ------- [2:0 10:0 32 10] [1 0] 1 0
s 1.057795248 _10_ AGT  --- 29 ack 40 [0 0 0 0] ------- [10:0 2:0 32 0] [1 0] 0 0
r 1.057795248 _10_ RTR  --- 29 ack 40 [0 0 0 0] ------- [10:0 2:0 32 0] [1 0] 0 0
s 1.057795248 _10_ RTR  --- 29 ack 60 [0 0 0 0] ------- [10:0 2:0 32 2] [1 0] 0 0
r 1.067780581 _10_ AGT  --- 27 tcp 1060 [13a a 2 800] ------- [2:0 10:0 32 10] [2 0] 1 0
s 1.067780581 _10_ AGT  --- 30 ack 40 [0 0 0 0] ------- [10:0 2:0 32 0] [2 0] 0 0
r 1.067780581 _10_ RTR  --- 30 ack 40 [0 0 0 0] ------- [10:0 2:0 32 0] [2 0] 0 0
s 1.067780581 _10_ RTR  --- 30 ack 60 [0 0 0 0] ------- [10:0 2:0 32 2] [2 0] 0 0
r 1.069865581 _2_ AGT  --- 29 ack 60 [13a 2 a 800] ------- [10:0 2:0 32 2] [1 0] 1 0
s 1.069865581 _2_ AGT  --- 31 tcp 1040 [0 0 0 0] ------- [2:0 10:0 32 0] [3 0] 0 0
r 1.069865581 _2_ RTR  --- 31 tcp 1040 [0 0 0 0] ------- [2:0 10:0 32 0] [3 0] 0 0
s 1.069865581 _2_ RTR  --- 31 tcp 1060 [0 0 0 0] ------- [2:0 10:0 32 10] [3 0] 0 0
s 1.069865581 _2_ AGT  --- 32 tcp 1040 [0 0 0 0] ------- [2:0 10:0 32 0] [4 0] 0 0
r 1.069865581 _2_ RTR  --- 32 tcp 1040 [0 0 0 0] ------- [2:0 10:0 32 0] [4 0] 0 0
s 1.069865581 _2_ RTR  --- 32 tcp 1060 [0 0 0 0] ------- [2:0 10:0 32 10] [4 0] 0 0
r 1.071911108 _7_ AGT  --- 25 ack 60 [13a 7 f 800] ------- [15:0 7:0 32 7] [1 0] 1 0
s 1.071911108 _7_ AGT  --- 33 tcp 1040 [0 0 0 0] ------- [7:0 15:0 32 0] [3 0] 0 0
r 1.071911108 _7_ RTR  --- 33 tcp 1040 [0 0 0 0] ------- [7:0 15:0 32 0] [3 0] 0 0
s 1.071911108 _7_ RTR  --- 33 tcp 1060 [0 0 0 0] ------- [7:0 15:0 32 15] [3 0] 0 0
s 1.071911108 _7_ AGT  --- 34 tcp 1040 [0 0 0 0] ------- [7:0 15:0 32 0] [4 0] 0 0
r 1.071911108 _7_ RTR  --- 34 tcp 1040 [0 0 0 0] ------- [7:0 15:0 32 0] [4 0] 0 0
s 1.071911108 _7_ RTR  --- 34 tcp 1060 [0 0 0 0] ------- [7:0 15:0 32 15] [4 0] 0 0
r 1.081996108 _15_ AGT  --- 33 tcp 1060 [13a f 7 800] ------- [7:0 15:0 32 15] [3 0] 1 0
s 1.081996108 _15_ AGT  --- 35 ack 40 [0 0 0 0] ------- [15:0 7:0 32 0] [3 0] 0 0
r 1.081996108 _15_ RTR  --- 35 ack 40 [0 0 0 0] ------- [15:0 7:0 32 0] [3 0] 0 0
s 1.081996108 _15_ RTR  --- 35 ack 60 [0 0 0 0] ------- [15:0 7:0 32 7] [3 0] 0 0
r 1.092001441 _15_ AGT  --- 34 tcp 1060 [13a f 7 800] ------- [7:0 15:0 32 15] [4 0] 1 0
s 1.092001441 _15_ AGT  --- 36 ack 40 [0 0 0 0] ------- [15:0 7:0 32 0] [4 0] 0 0
r 1.092001441 _15_ RTR  --- 36 ack 40 [0 0 0 0] ------- [15:0 7:0 32 0] [4 0] 0 0
s 1.092001441 _15_ RTR  --- 36 ack 60 [0 0 0 0] ------- [15:0 7:0 32 7] [4 0] 0 0
r 1.094006913 _13_ AGT  --- 16 tcp 60 [13a d 5 800] ------- [5:0 13:0 32 13] [0 0] 1 0
s 1.094006913 _13_ AGT  --- 37 ack 40 [0 0 0 0] ------- [13:0 5:0 32 0] [0 0] 0 0
r 1.094006913 _13_ RTR  --- 37 ack 40 [0 0 0 0] ------- [13:0 5:0 32 0] [0 0] 0 0
s 1.094006913 _13_ RTR  --- 37 ack 60 [0 0 0 0] ------- [13:0 5:0 32 5] [0 0] 0 0
r 1.096051913 _5_ AGT  --- 37 ack 60 [13a 5 d 800] ------- [13:0 5:0 32 5] [0 0] 1 0
s 1.096051913 _5_ AGT  --- 38 tcp 1040 [0 0 0 0] ------- [5:0 13:0 32 0] [1 0] 0 0
r 1.096051913 _5_ RTR  --- 38 tcp 1040 [0 0 0 0] ------- [5:0 13:0 32 0] [1 0] 0 0
s 1.096051913 _5_ RTR  --- 38 tcp 1060 [0 0 0 0] ------- [5:0 13:0 32 13] [1 0] 0 0
s 1.096051913 _5_ AGT  --- 39 tcp 1040 [0 0 0 0] ------- [5:0 13:0 32 0] [2 0] 0 0
r 1.096051913 _5_ RTR  --- 39 tcp 1040 [0 0 0 0] ------- [5:0 13:0 32 0] [2 0] 0 0
s 1.096051913 _5_ RTR  --- 39 tcp 1060 [0 0 0 0] ------- [5:0 13:0 32 13] [2 0] 0 0
r 1.106256913 _13_ AGT  --- 38 tcp 1060 [13a d 5 800] ------- [5:0 13:0 32 13] [1 0] 1 0
s 1.106256913 _13_ AGT  --- 40 ack 40 [0 0 0 0] ------- [13:0 5:0 32 0] [1 0] 0 0
r 1.106256913 _13_ RTR  --- 40 ack 40 [0 0 0 0] ------- [13:0 5:0 32 0] [1 0] 0 0
s 1.106256913 _13_ RTR  --- 40 ack 60 [0 0 0 0] ------- [13:0 5:0 32 5] [1 0] 0 0
r 1.108261913 _5_ AGT  --- 40 ack 60 [13a 5 d 800] ------- [13:0 5:0 32 5] [1 0] 1 0
s 1.108261913 _5_ AGT  --- 41 tcp 1040 [0 0 0 0] ------- [5:0 13:0 32 0] [3 0] 0 0
r 1.108261913 _5_ RTR  --- 41 tcp 1040 [0 0 0 0] ------- [5:0 13:0 32 0] [3 0] 0 0
s 1.108261913 _5_ RTR  --- 41 tcp 1060 [0 0 0 0] ------- [5:0 13:0 32 13] [3 0] 0 0
s 1.108261913 _5_ AGT  --- 42 tcp 1040 [0 0 0 0] ------- [5:0 13:0 32 0] [4 0] 0 0
r 1.108261913 _5_ RTR  --- 42 tcp 1040 [0 0 0 0] ------- [5:0 13:0 32 0] [4 0] 0 0
s 1.108261913 _5_ RTR  --- 42 tcp 1060 [0 0 0 0] ------- [5:0 13:0 32 13] [4 0] 0 0
r 1.110307384 _7_ AGT  --- 28 ack 60 [13a 7 f 800] ------- [15:0 7:0 32 7] [2 0] 1 0
s 1.110307384 _7_ AGT  --- 43 tcp 1040 [0 0 0 0] ------- [7:0 15:0 32 0] [5 0] 0 0
r 1.110307384 _7_ RTR  --- 43 tcp 1040 [0 0 0 0] ------- [7:0 15:0 32 0] [5 0] 0 0
s 1.110307384 _7_ RTR  --- 43 tcp 1060 [0 0 0 0] ------- [7:0 15:0 32 15] [5 0] 0 0
s 1.110307384 _7_ AGT  --- 44 tcp 1040 [0 0 0 0] ------- [7:0 15:0 32 0] [6 0] 0 0
r 1.110307384 _7_ RTR  --- 44 tcp 1040 [0 0 0 0] ------- [7:0 15:0 32 0] [6 0] 0 0
s 1.110307384 _7_ RTR  --- 44 tcp 1060 [0 0 0 0] ------- [7:0 15:0 32 15] [6 0] 0 0
r 1.120332620 _10_ AGT  --- 31 tcp 1060 [13a a 2 800] ------- [2:0 10:0 32 10] [3 0] 1 0
s 1.120332620 _10_ AGT  --- 45 ack 40 [0 0 0 0] ------- [10:0 2:0 32 0] [3 0] 0 0
r 1.120332620 _10_ RTR  --- 45 ack 40 [0 0 0 0] ------- [10:0 2:0 32 0] [3 0] 0 0
s 1.120332620 _10_ RTR  --- 45 ack 60 [0 0 0 0] ------- [10:0 2:0 32 2] [3 0] 0 0
r 1.122397620 _2_ AGT  --- 30 ack 60 [13a 2 a 800] ------- [10:0 2:0 32 2] [2 0] 1 0
s 1.122397620 _2_ AGT  --- 46 tcp 1040 [0 0 0 0] ------- [2:0 10:0 32 0] [5 0] 0 0
r 1.122397620 _2_ RTR  --- 46 tcp 1040 [0 0 0 0] ------- [2:0 10:0 32 0] [5 0] 0 0
s 1.122397620 _2_ RTR  --- 46 tcp 1060 [0 0 0 0] ------- [2:0 10:0 32 10] [5 0] 0 0
s 1.122397620 _2_ AGT  --- 47 tcp 1040 [0 0 0 0] ------- [2:0 10:0 32 0] [6 0] 0 0
r 1.122397620 _2_ RTR  --- 47 tcp 1040 [0 0 0 0] ------- [2:0 10:0 32 0] [6 0] 0 0
s 1.122397620 _2_ RTR  --- 47 tcp 1060 [0 0 0 0] ------- [2:0 10:0 32 10] [6 0] 0 0
r 1.124562953 _2_ AGT  --- 45 ack 60 [13a 2 a 800] ------- [10:0 2:0 32 2] [3 0] 1 0
s 1.124562953 _2_ AGT  --- 48 tcp 1040 [0 0 0 0] ------- [2:0 10:0 32 0] [7 0] 0 0
r 1.124562953 _2_ RTR  --- 48 tcp 1040 [0 0 0 0] ------- [2:0 10:0 32 0] [7 0] 0 0
s 1.124562953 _2_ RTR  --- 48 tcp 1060 [0 0 0 0] ------- [2:0 10:0 32 10] [7 0] 0 0
s 1.124562953 _2_ AGT  --- 49 tcp 1040 [0 0 0 0] ------- [2:0 10:0 32 0] [8 0] 0 0
r 1.124562953 _2_ RTR  --- 49 tcp 1040 [0 0 0 0] ------- [2:0 10:0 32 0] [8 0] 0 0
s 1.124562953 _2_ RTR  --- 49 tcp 1060 [0 0 0 0] ------- [2:0 10:0 32 10] [8 0] 0 0
r 1.134588189 _13_ AGT  --- 39 tcp 1060 [13a d 5 800] ------- [5:0 13:0 32 13] [2 0] 1 0
s 1.134588189 _13_ AGT  --- 50 ack 40 [0 0 0 0] ------- [13:0 5:0 32 0] [2 0] 0 0
r 1.134588189 _13_ RTR  --- 50 ack 40 [0 0 0 0] ------- [13:0 5:0 32 0] [2 0] 0 0
s 1.134588189 _13_ RTR  --- 50 ack 60 [0 0 0 0] ------- [13:0 5:0 32 5] [2 0] 0 0
r 1.144613716 _10_ AGT  --- 32 tcp 1060 [13a a 2 800] ------- [2:0 10:0 32 10] [4 0] 1 0
s 1.144613716 _10_ AGT  --- 51 ack 40 [0 0 0 0] ------- [10:0 2:0 32 0] [4 0] 0 0
r 1.144613716 _10_ RTR  --- 51 ack 40 [0 0 0 0] ------- [10:0 2:0 32 0] [4 0] 0 0
s 1.144613716 _10_ RTR  --- 51 ack 60 [0 0 0 0] ------- [10:0 2:0 32 2] [4 0] 0 0
r 1.147485285 _7_ AGT  --- 35 ack 60 [13a 7 f 800] ------- [15:0 7:0 32 7] [3 0] 1 0
s 1.147485285 _7_ AGT  --- 52 tcp 1040 [0 0 0 0] ------- [7:0 15:0 32 0] [7 0] 0 0
r 1.147485285 _7_ RTR  --- 52 tcp 1040 [0 0 0 0] ------- [7:0 15:0 32 0] [7 0] 0 0
s 1.147485285 _7_ RTR  --- 52 tcp 1060 [0 0 0 0] ------- [7:0 15:0 32 15] [7 0] 0 0
s 1.147485285 _7_ AGT  --- 53 tcp 1040 [0 0 0 0] ------- [7:0 15:0 32 0] [8 0] 0 0
r 1.147485285 _7_ RTR  --- 53 tcp 1040 [0 0 0 0] ------- [7:0 15:0 32 0] [8 0] 0 0
s 1.147485285 _7_ RTR  --- 53 tcp 1060 [0 0 0 0] ------- [7:0 15:0 32 15] [8 0] 0 0
r 1.157490618 _13_ AGT  --- 41 tcp 1060 [13a d 5 800] ------- [5:0 13:0 32 13] [3 0] 1 0
s 1.157490618 _13_ AGT  --- 54 ack 40 [0 0 0 0] ------- [13:0 5:0 32 0] [3 0] 0 0
r 1.157490618 _13_ RTR  --- 54 ack 40 [0 0 0 0] ------- [13:0 5:0 32 0] [3 0] 0 0
s 1.157490618 _13_ RTR  --- 54 ack 60 [0 0 0 0] ------- [13:0 5:0 32 5] [3 0] 0 0
r 1.167475952 _13_ AGT  --- 42 tcp 1060 [13a d 5 800] ------- [5:0 13:0 32 13] [4 0] 1 0
s 1.167475952 _13_ AGT  --- 55 ack 40 [0 0 0 0] ------- [13:0 5:0 32 0] [4 0] 0 0
r 1.167475952 _13_ RTR  --- 55 ack 40 [0 0 0 0] ------- [13:0 5:0 32 0] [4 0] 0 0
s 1.167475952 _13_ RTR  --- 55 ack 60 [0 0 0 0] ------- [13:0 5:0 32 5] [4 0] 0 0
r 1.178367812 _10_ AGT  --- 46 tcp 1060 [13a a 2 800] ------- [2:0 10:0 32 10] [5 0] 1 0
s 1.178367812 _10_ AGT  --- 56 ack 40 [0 0 0 0] ------- [10:0 2:0 32 0] [5 0] 0 0
r 1.178367812 _10_ RTR  --- 56 ack 40 [0 0 0 0] ------- [10:0 2:0 32 0] [5 0] 0 0
s 1.178367812 _10_ RTR  --- 56 ack 60 [0 0 0 0] ------- [10:0 2:0 32 2] [5 0] 0 0
r 1.180552812 _2_ AGT  --- 51 ack 60 [13a 2 a 800] ------- [10:0 2:0 32 2] [4 0] 1 0
s 1.180552812 _2_ AGT  --- 57 tcp 1040 [0 0 0 0] ------- [2:0 10:0 32 0] [9 0] 0 0
r 1.180552812 _2_ RTR  --- 57 tcp 1040 [0 0 0 0] ------- [2:0 10:0 32 0] [9 0] 0 0
s 1.180552812 _2_ RTR  --- 57 tcp 1060 [0 0 0 0] ------- [2:0 10:0 32 10] [9 0] 0 0
s 1.180552812 _2_ AGT  --- 58 tcp 1040 [0 0 0 0] ------- [2:0 10:0 32 0] [10 0] 0 0
r 1.180552812 _2_ RTR  --- 58 tcp 1040 [0 0 0 0] ------- [2:0 10:0 32 0] [10 0] 0 0
s 1.180552812 _2_ RTR  --- 58 tcp 1060 [0 0 0 0] ------- [2:0 10:0 32 10] [10 0] 0 0
r 1.182758145 _2_ AGT  --- 56 ack 60 [13a 2 a 800] ------- [10:0 2:0 32 2] [5 0] 1 0
s 1.182758145 _2_ AGT  --- 59 tcp 1040 [0 0 0 0] ------- [2:0 10:0 32 0] [11 0] 0 0
r 1.182758145 _2_ RTR  --- 59 tcp 1040 [0 0 0 0] ------- [2:0 10:0 32 0] [11 0] 0 0
s 1.182758145 _2_ RTR  --- 59 tcp 1060 [0 0 0 0] ------- [2:0 10:0 32 10] [11 0] 0 0