s 1.000000000 _20_ AGT  --- 0 tcp 40 [0 0 0 0] [energy 2.000000 ei 0.000 es 0.000 et 0.000 er 0.000] ------- [20:0 8:0 32 0] [0 0] 0 0
r 1.000000000 _20_ RTR  --- 0 tcp 40 [0 0 0 0] [energy 2.000000 ei 0.000 es 0.000 et 0.000 er 0.000] ------- [20:0 8:0 32 0] [0 0] 0 0
s 1.000000000 _20_ AGT  --- 1 tcp 40 [0 0 0 0] [energy 2.000000 ei 0.000 es 0.000 et 0.000 er 0.000] ------- [20:1 21:0 32 0] [0 0] 0 0
r 1.000000000 _20_ RTR  --- 1 tcp 40 [0 0 0 0] [energy 2.000000 ei 0.000 es 0.000 et 0.000 er 0.000] ------- [20:1 21:0 32 0] [0 0] 0 0
s 1.000000000 _20_ AGT  --- 2 tcp 40 [0 0 0 0] [energy 2.000000 ei 0.000 es 0.000 et 0.000 er 0.000] ------- [20:2 26:0 32 0] [0 0] 0 0
r 1.000000000 _20_ RTR  --- 2 tcp 40 [0 0 0 0] [energy 2.000000 ei 0.000 es 0.000 et 0.000 er 0.000] ------- [20:2 26:0 32 0] [0 0] 0 0
s 1.000000000 _20_ AGT  --- 3 tcp 40 [0 0 0 0] [energy 2.000000 ei 0.000 es 0.000 et 0.000 er 0.000] ------- [20:3 34:0 32 0] [0 0] 0 0
r 1.000000000 _20_ RTR  --- 3 tcp 40 [0 0 0 0] [energy 2.000000 ei 0.000 es 0.000 et 0.000 er 0.000] ------- [20:3 34:0 32 0] [0 0] 0 0
s 1.000000000 _20_ AGT  --- 4 tcp 40 [0 0 0 0] [energy 2.000000 ei 0.000 es 0.000 et 0.000 er 0.000] ------- [20:4 26:1 32 0] [0 0] 0 0
r 1.000000000 _20_ RTR  --- 4 tcp 40 [0 0 0 0] [energy 2.000000 ei 0.000 es 0.000 et 0.000 er 0.000] ------- [20:4 26:1 32 0] [0 0] 0 0
s 1.000000000 _20_ AGT  --- 5 tcp 40 [0 0 0 0] [energy 2.000000 ei 0.000 es 0.000 et 0.000 er 0.000] ------- [20:5 11:0 32 0] [0 0] 0 0
r 1.000000000 _20_ RTR  --- 5 tcp 40 [0 0 0 0] [energy 2.000000 ei 0.000 es 0.000 et 0.000 er 0.000] ------- [20:5 11:0 32 0] [0 0] 0 0
s 1.000000000 _20_ AGT  --- 6 tcp 40 [0 0 0 0] [energy 2.000000 ei 0.000 es 0.000 et 0.000 er 0.000] ------- [20:6 31:0 32 0] [0 0] 0 0
r 1.000000000 _20_ RTR  --- 6 tcp 40 [0 0 0 0] [energy 2.000000 ei 0.000 es 0.000 et 0.000 er 0.000] ------- [20:6 31:0 32 0] [0 0] 0 0
s 1.000000000 _20_ AGT  --- 7 tcp 40 [0 0 0 0] [energy 2.000000 ei 0.000 es 0.000 et 0.000 er 0.000] ------- [20:7 4:0 32 0] [0 0] 0 0
r 1.000000000 _20_ RTR  --- 7 tcp 40 [0 0 0 0] [energy 2.000000 ei 0.000 es 0.000 et 0.000 er 0.000] ------- [20:7 4:0 32 0] [0 0] 0 0
s 1.000000000 _20_ AGT  --- 8 tcp 40 [0 0 0 0] [energy 2.000000 ei 0.000 es 0.000 et 0.000 er 0.000] ------- [20:8 26:2 32 0] [0 0] 0 0
r 1.000000000 _20_ RTR  --- 8 tcp 40 [0 0 0 0] [energy 2.000000 ei 0.000 es 0.000 et 0.000 er 0.000] ------- [20:8 26:2 32 0] [0 0] 0 0
s 1.000000000 _20_ AGT  --- 9 tcp 40 [0 0 0 0] [energy 2.000000 ei 0.000 es 0.000 et 0.000 er 0.000] ------- [20:9 18:0 32 0] [0 0] 0 0
r 1.000000000 _20_ RTR  --- 9 tcp 40 [0 0 0 0] [energy 2.000000 ei 0.000 es 0.000 et 0.000 er 0.000] ------- [20:9 18:0 32 0] [0 0] 0 0
s 1.000000000 _20_ AGT  --- 10 tcp 40 [0 0 0 0] [energy 2.000000 ei 0.000 es 0.000 et 0.000 er 0.000] ------- [20:10 13:0 32 0] [0 0] 0 0
r 1.000000000 _20_ RTR  --- 10 tcp 40 [0 0 0 0] [energy 2.000000 ei 0.000 es 0.000 et 0.000 er 0.000] ------- [20:10 13:0 32 0] [0 0] 0 0
s 1.000000000 _20_ AGT  --- 11 tcp 40 [0 0 0 0] [energy 2.000000 ei 0.000 es 0.000 et 0.000 er 0.000] ------- [20:11 19:0 32 0] [0 0] 0 0
r 1.000000000 _20_ RTR  --- 11 tcp 40 [0 0 0 0] [energy 2.000000 ei 0.000 es 0.000 et 0.000 er 0.000] ------- [20:11 19:0 32 0] [0 0] 0 0
s 1.000000000 _20_ AGT  --- 12 tcp 40 [0 0 0 0] [energy 2.000000 ei 0.000 es 0.000 et 0.000 er 0.000] ------- [20:12 7:0 32 0] [0 0] 0 0
r 1.000000000 _20_ RTR  --- 12 tcp 40 [0 0 0 0] [energy 2.000000 ei 0.000 es 0.000 et 0.000 er 0.000] ------- [20:12 7:0 32 0] [0 0] 0 0
s 1.000000000 _20_ AGT  --- 13 tcp 40 [0 0 0 0] [energy 2.000000 ei 0.000 es 0.000 et 0.000 er 0.000] ------- [20:13 24:0 32 0] [0 0] 0 0
r 1.000000000 _20_ RTR  --- 13 tcp 40 [0 0 0 0] [energy 2.000000 ei 0.000 es 0.000 et 0.000 er 0.000] ------- [20:13 24:0 32 0] [0 0] 0 0
s 1.000000000 _20_ AGT  --- 14 tcp 40 [0 0 0 0] [energy 2.000000 ei 0.000 es 0.000 et 0.000 er 0.000] ------- [20:14 12:0 32 0] [0 0] 0 0
r 1.000000000 _20_ RTR  --- 14 tcp 40 [0 0 0 0] [energy 2.000000 ei 0.000 es 0.000 et 0.000 er 0.000] ------- [20:14 12:0 32 0] [0 0] 0 0
s 1.000000000 _20_ AGT  --- 15 tcp 40 [0 0 0 0] [energy 2.000000 ei 0.000 es 0.000 et 0.000 er 0.000] ------- [20:15 33:0 32 0] [0 0] 0 0
r 1.000000000 _20_ RTR  --- 15 tcp 40 [0 0 0 0] [energy 2.000000 ei 0.000 es 0.000 et 0.000 er 0.000] ------- [20:15 33:0 32 0] [0 0] 0 0
s 1.000000000 _20_ AGT  --- 16 tcp 40 [0 0 0 0] [energy 2.000000 ei 0.000 es 0.000 et 0.000 er 0.000] ------- [20:16 29:0 32 0] [0 0] 0 0
r 1.000000000 _20_ RTR  --- 16 tcp 40 [0 0 0 0] [energy 2.000000 ei 0.000 es 0.000 et 0.000 er 0.000] ------- [20:16 29:0 32 0] [0 0] 0 0
s 1.000000000 _20_ AGT  --- 17 tcp 40 [0 0 0 0] [energy 2.000000 ei 0.000 es 0.000 et 0.000 er 0.000] ------- [20:17 22:0 32 0] [0 0] 0 0
r 1.000000000 _20_ RTR  --- 17 tcp 40 [0 0 0 0] [energy 2.000000 ei 0.000 es 0.000 et 0.000 er 0.000] ------- [20:17 22:0 32 0] [0 0] 0 0
s 1.000000000 _20_ AGT  --- 18 tcp 40 [0 0 0 0] [energy 2.000000 ei 0.000 es 0.000 et 0.000 er 0.000] ------- [20:18 18:1 32 0] [0 0] 0 0
r 1.000000000 _20_ RTR  --- 18 tcp 40 [0 0 0 0] [energy 2.000000 ei 0.000 es 0.000 et 0.000 er 0.000] ------- [20:18 18:1 32 0] [0 0] 0 0
s 1.000000000 _20_ AGT  --- 19 tcp 40 [0 0 0 0] [energy 2.000000 ei 0.000 es 0.000 et 0.000 er 0.000] ------- [20:19 26:3 32 0] [0 0] 0 0
r 1.000000000 _20_ RTR  --- 19 tcp 40 [0 0 0 0] [energy 2.000000 ei 0.000 es 0.000 et 0.000 er 0.000] ------- [20:19 26:3 32 0] [0 0] 0 0
s 1.000000000 _20_ AGT  --- 20 tcp 40 [0 0 0 0] [energy 2.000000 ei 0.000 es 0.000 et 0.000 er 0.000] ------- [20:20 7:1 32 0] [0 0] 0 0
r 1.000000000 _20_ RTR  --- 20 tcp 40 [0 0 0 0] [energy 2.000000 ei 0.000 es 0.000 et 0.000 er 0.000] ------- [20:20 7:1 32 0] [0 0] 0 0
s 1.000000000 _20_ AGT  --- 21 tcp 40 [0 0 0 0] [energy 2.000000 ei 0.000 es 0.000 et 0.000 er 0.000] ------- [20:21 26:4 32 0] [0 0] 0 0
r 1.000000000 _20_ RTR  --- 21 tcp 40 [0 0 0 0] [energy 2.000000 ei 0.000 es 0.000 et 0.000 er 0.000] ------- [20:21 26:4 32 0] [0 0] 0 0
s 1.000000000 _20_ AGT  --- 22 tcp 40 [0 0 0 0] [energy 2.000000 ei 0.000 es 0.000 et 0.000 er 0.000] ------- [20:22 26:5 32 0] [0 0] 0 0
r 1.000000000 _20_ RTR  --- 22 tcp 40 [0 0 0 0] [energy 2.000000 ei 0.000 es 0.000 et 0.000 er 0.000] ------- [20:22 26:5 32 0] [0 0] 0 0
s 1.000000000 _20_ AGT  --- 23 tcp 40 [0 0 0 0] [energy 2.000000 ei 0.000 es 0.000 et 0.000 er 0.000] ------- [20:23 25:0 32 0] [0 0] 0 0
r 1.000000000 _20_ RTR  --- 23 tcp 40 [0 0 0 0] [energy 2.000000 ei 0.000 es 0.000 et 0.000 er 0.000] ------- [20:23 25:0 32 0] [0 0] 0 0
s 1.000000000 _20_ AGT  --- 24 tcp 40 [0 0 0 0] [energy 2.000000 ei 0.000 es 0.000 et 0.000 er 0.000] ------- [20:24 26:6 32 0] [0 0] 0 0
r 1.000000000 _20_ RTR  --- 24 tcp 40 [0 0 0 0] [energy 2.000000 ei 0.000 es 0.000 et 0.000 er 0.000] ------- [20:24 26:6 32 0] [0 0] 0 0
s 1.000000000 _20_ AGT  --- 25 tcp 40 [0 0 0 0] [energy 2.000000 ei 0.000 es 0.000 et 0.000 er 0.000] ------- [20:25 18:2 32 0] [0 0] 0 0
r 1.000000000 _20_ RTR  --- 25 tcp 40 [0 0 0 0] [energy 2.000000 ei 0.000 es 0.000 et 0.000 er 0.000] ------- [20:25 18:2 32 0] [0 0] 0 0
s 1.000000000 _20_ AGT  --- 26 tcp 40 [0 0 0 0] [energy 2.000000 ei 0.000 es 0.000 et 0.000 er 0.000] ------- [20:26 35:0 32 0] [0 0] 0 0
r 1.000000000 _20_ RTR  --- 26 tcp 40 [0 0 0 0] [energy 2.000000 ei 0.000 es 0.000 et 0.000 er 0.000] ------- [20:26 35:0 32 0] [0 0] 0 0
s 1.000000000 _20_ AGT  --- 27 tcp 40 [0 0 0 0] [energy 2.000000 ei 0.000 es 0.000 et 0.000 er 0.000] ------- [20:27 29:1 32 0] [0 0] 0 0
r 1.000000000 _20_ RTR  --- 27 tcp 40 [0 0 0 0] [energy 2.000000 ei 0.000 es 0.000 et 0.000 er 0.000] ------- [20:27 29:1 32 0] [0 0] 0 0
s 1.000000000 _20_ AGT  --- 28 tcp 40 [0 0 0 0] [energy 2.000000 ei 0.000 es 0.000 et 0.000 er 0.000] ------- [20:28 33:1 32 0] [0 0] 0 0
r 1.000000000 _20_ RTR  --- 28 tcp 40 [0 0 0 0] [energy 2.000000 ei 0.000 es 0.000 et 0.000 er 0.000] ------- [20:28 33:1 32 0] [0 0] 0 0
s 1.000000000 _20_ AGT  --- 29 tcp 40 [0 0 0 0] [energy 2.000000 ei 0.000 es 0.000 et 0.000 er 0.000] ------- [20:29 22:1 32 0] [0 0] 0 0
r 1.000000000 _20_ RTR  --- 29 tcp 40 [0 0 0 0] [energy 2.000000 ei 0.000 es 0.000 et 0.000 er 0.000] ------- [20:29 22:1 32 0] [0 0] 0 0
s 1.000000000 _20_ AGT  --- 30 tcp 40 [0 0 0 0] [energy 2.000000 ei 0.000 es 0.000 et 0.000 er 0.000] ------- [20:30 4:1 32 0] [0 0] 0 0
r 1.000000000 _20_ RTR  --- 30 tcp 40 [0 0 0 0] [energy 2.000000 ei 0.000 es 0.000 et 0.000 er 0.000] ------- [20:30 4:1 32 0] [0 0] 0 0
s 1.000000000 _20_ AGT  --- 31 tcp 40 [0 0 0 0] [energy 2.000000 ei 0.000 es 0.000 et 0.000 er 0.000] ------- [20:31 10:0 32 0] [0 0] 0 0
r 1.000000000 _20_ RTR  --- 31 tcp 40 [0 0 0 0] [energy 2.000000 ei 0.000 es 0.000 et 0.000 er 0.000] ------- [20:31 10:0 32 0] [0 0] 0 0
s 1.000000000 _20_ AGT  --- 32 tcp 40 [0 0 0 0] [energy 2.000000 ei 0.000 es 0.000 et 0.000 er 0.000] ------- [20:32 23:0 32 0] [0 0] 0 0
r 1.000000000 _20_ RTR  --- 32 tcp 40 [0 0 0 0] [energy 2.000000 ei 0.000 es 0.000 et 0.000 er 0.000] ------- [20:32 23:0 32 0] [0 0] 0 0
s 1.000000000 _20_ AGT  --- 33 tcp 40 [0 0 0 0] [energy 2.000000 ei 0.000 es 0.000 et 0.000 er 0.000] ------- [20:33 2:0 32 0] [0 0] 0 0
r 1.000000000 _20_ RTR  --- 33 tcp 40 [0 0 0 0] [energy 2.000000 ei 0.000 es 0.000 et 0.000 er 0.000] ------- [20:33 2:0 32 0] [0 0] 0 0
s 1.000000000 _20_ AGT  --- 34 tcp 40 [0 0 0 0] [energy 2.000000 ei 0.000 es 0.000 et 0.000 er 0.000] ------- [20:34 25:1 32 0] [0 0] 0 0
r 1.000000000 _20_ RTR  --- 34 tcp 40 [0 0 0 0] [energy 2.000000 ei 0.000 es 0.000 et 0.000 er 0.000] ------- [20:34 25:1 32 0] [0 0] 0 0
s 1.000000000 _20_ AGT  --- 35 tcp 40 [0 0 0 0] [energy 2.000000 ei 0.000 es 0.000 et 0.000 er 0.000] ------- [20:35 16:0 32 0] [0 0] 0 0
r 1.000000000 _20_ RTR  --- 35 tcp 40 [0 0 0 0] [energy 2.000000 ei 0.000 es 0.000 et 0.000 er 0.000] ------- [20:35 16:0 32 0] [0 0] 0 0
s 1.000000000 _20_ AGT  --- 36 tcp 40 [0 0 0 0] [energy 2.000000 ei 0.000 es 0.000 et 0.000 er 0.000] ------- [20:36 31:1 32 0] [0 0] 0 0
r 1.000000000 _20_ RTR  --- 36 tcp 40 [0 0 0 0] [energy 2.000000 ei 0.000 es 0.000 et 0.000 er 0.000] ------- [20:36 31:1 32 0] [0 0] 0 0
s 1.000000000 _20_ AGT  --- 37 tcp 40 [0 0 0 0] [energy 2.000000 ei 0.000 es 0.000 et 0.000 er 0.000] ------- [20:37 3:0 32 0] [0 0] 0 0
r 1.000000000 _20_ RTR  --- 37 tcp 40 [0 0 0 0] [energy 2.000000 ei 0.000 es 0.000 et 0.000 er 0.000] ------- [20:37 3:0 32 0] [0 0] 0 0
s 1.000000000 _20_ AGT  --- 38 tcp 40 [0 0 0 0] [energy 2.000000 ei 0.000 es 0.000 et 0.000 er 0.000] ------- [20:38 32:0 32 0] [0 0] 0 0
r 1.000000000 _20_ RTR  --- 38 tcp 40 [0 0 0 0] [energy 2.000000 ei 0.000 es 0.000 et 0.000 er 0.000] ------- [20:38 32:0 32 0] [0 0] 0 0
s 1.000000000 _20_ AGT  --- 39 tcp 40 [0 0 0 0] [energy 2.000000 ei 0.000 es 0.000 et 0.000 er 0.000] ------- [20:39 2:1 32 0] [0 0] 0 0
r 1.000000000 _20_ RTR  --- 39 tcp 40 [0 0 0 0] [energy 2.000000 ei 0.000 es 0.000 et 0.000 er 0.000] ------- [20:39 2:1 32 0] [0 0] 0 0
s 1.000000000 _20_ RTR  --- 0 AODV 48 [0 0 0 0] [energy 2.000000 ei 0.000 es 0.000 et 0.000 er 0.000] ------- [20:255 -1:255 30 0] [0x2 1 1 [8 0] [20 4]] (REQUEST)
s 1.000000000 _20_ RTR  --- 0 AODV 48 [0 0 0 0] [energy 2.000000 ei 0.000 es 0.000 et 0.000 er 0.000] ------- [20:255 -1:255 30 0] [0x2 1 2 [21 0] [20 6]] (REQUEST)
s 1.000000000 _20_ RTR  --- 0 AODV 48 [0 0 0 0] [energy 2.000000 ei 0.000 es 0.000 et 0.000 er 0.000] ------- [20:255 -1:255 30 0] [0x2 1 3 [26 0] [20 8]] (REQUEST)
s 1.000000000 _20_ RTR  --- 0 AODV 48 [0 0 0 0] [energy 2.000000 ei 0.000 es 0.000 et 0.000 er 0.000] ------- [20:255 -1:255 30 0] [0x2 1 4 [34 0] [20 10]] (REQUEST)
s 1.000000000 _20_ RTR  --- 0 AODV 48 [0 0 0 0] [energy 2.000000 ei 0.000 es 0.000 et 0.000 er 0.000] ------- [20:255 -1:255 30 0] [0x2 1 5 [11 0] [20 12]] (REQUEST)
s 1.000000000 _20_ RTR  --- 0 AODV 48 [0 0 0 0] [energy 2.000000 ei 0.000 es 0.000 et 0.000 er 0.000] ------- [20:255 -1:255 30 0] [0x2 1 6 [31 0] [20 14]] (REQUEST)
s 1.000000000 _20_ RTR  --- 0 AODV 48 [0 0 0 0] [energy 2.000000 ei 0.000 es 0.000 et 0.000 er 0.000] ------- [20:255 -1:255 30 0] [0x2 1 7 [4 0] [20 16]] (REQUEST)
s 1.000000000 _20_ RTR  --- 0 AODV 48 [0 0 0 0] [energy 2.000000 ei 0.000 es 0.000 et 0.000 er 0.000] ------- [20:255 -1:255 30 0] [0x2 1 8 [18 0] [20 18]] (REQUEST)
s 1.000000000 _20_ RTR  --- 0 AODV 48 [0 0 0 0] [energy 2.000000 ei 0.000 es 0.000 et 0.000 er 0.000] ------- [20:255 -1:255 30 0] [0x2 1 9 [13 0] [20 20]] (REQUEST)
s 1.000000000 _20_ RTR  --- 0 AODV 48 [0 0 0 0] [energy 2.000000 ei 0.000 es 0.000 et 0.000 er 0.000] ------- [20:255 -1:255 30 0] [0x2 1 10 [19 0] [20 22]] (REQUEST)
s 1.000000000 _20_ RTR  --- 0 AODV 48 [0 0 0 0] [energy 2.000000 ei 0.000 es 0.000 et 0.000 er 0.000] ------- [20:255 -1:255 30 0] [0x2 1 11 [7 0] [20 24]] (REQUEST)
s 1.000000000 _20_ RTR  --- 0 AODV 48 [0 0 0 0] [energy 2.000000 ei 0.000 es 0.000 et 0.000 er 0.000] ------- [20:255 -1:255 30 0] [0x2 1 12 [24 0] [20 26]] (REQUEST)
s 1.000000000 _20_ RTR  --- 0 AODV 48 [0 0 0 0] [energy 2.000000 ei 0.000 es 0.000 et 0.000 er 0.000] ------- [20:255 -1:255 30 0] [0x2 1 13 [12 0] [20 28]] (REQUEST)
s 1.000000000 _20_ RTR  --- 0 AODV 48 [0 0 0 0] [energy 2.000000 ei 0.000 es 0.000 et 0.000 er 0.000] ------- [20:255 -1:255 30 0] [0x2 1 14 [33 0] [20 30]] (REQUEST)
s 1.000000000 _20_ RTR  --- 0 AODV 48 [0 0 0 0] [energy 2.000000 ei 0.000 es 0.000 et 0.000 er 0.000] ------- [20:255 -1:255 30 0] [0x2 1 15 [29 0] [20 32]] (REQUEST)
s 1.000000000 _20_ RTR  --- 0 AODV 48 [0 0 0 0] [energy 2.000000 ei 0.000 es 0.000 et 0.000 er 0.000] ------- [20:255 -1:255 30 0] [0x2 1 16 [22 0] [20 34]] (REQUEST)
s 1.000000000 _20_ RTR  --- 0 AODV 48 [0 0 0 0] [energy 2.000000 ei 0.000 es 0.000 et 0.000 er 0.000] ------- [20:255 -1:255 30 0] [0x2 1 17 [25 0] [20 36]] (REQUEST)
s 1.000000000 _20_ RTR  --- 0 AODV 48 [0 0 0 0] [energy 2.000000 ei 0.000 es 0.000 et 0.000 er 0.000] ------- [20:255 -1:255 30 0] [0x2 1 18 [35 0] [20 38]] (REQUEST)
s 1.000000000 _20_ RTR  --- 0 AODV 48 [0 0 0 0] [energy 2.000000 ei 0.000 es 0.000 et 0.000 er 0.000] ------- [20:255 -1:255 30 0] [0x2 1 19 [10 0] [20 40]] (REQUEST)
s 1.000000000 _20_ RTR  --- 0 AODV 48 [0 0 0 0] [energy 2.000000 ei 0.000 es 0.000 et 0.000 er 0.000] ------- [20:255 -1:255 30 0] [0x2 1 20 [23 0] [20 42]] (REQUEST)
s 1.000000000 _20_ RTR  --- 0 AODV 48 [0 0 0 0] [energy 2.000000 ei 0.000 es 0.000 et 0.000 er 0.000] ------- [20:255 -1:255 30 0] [0x2 1 21 [2 0] [20 44]] (REQUEST)
s 1.000000000 _20_ RTR  --- 0 AODV 48 [0 0 0 0] [energy 2.000000 ei 0.000 es 0.000 et 0.000 er 0.000] ------- [20:255 -1:255 30 0] [0x2 1 22 [16 0] [20 46]] (REQUEST)
s 1.000000000 _20_ RTR  --- 0 AODV 48 [0 0 0 0] [energy 2.000000 ei 0.000 es 0.000 et 0.000 er 0.000] ------- [20:255 -1:255 30 0] [0x2 1 23 [3 0] [20 48]] (REQUEST)
s 1.000000000 _20_ RTR  --- 0 AODV 48 [0 0 0 0] [energy 2.000000 ei 0.000 es 0.000 et 0.000 er 0.000] ------- [20:255 -1:255 30 0] [0x2 1 24 [32 0] [20 50]] (REQUEST)
N -t 1.002585 -n 9 -e 1.647534
N -t 1.002585 -n 24 -e 1.647534
N -t 1.002585 -n 3 -e 1.647534
N -t 1.002585 -n 4 -e 1.647534
N -t 1.002585 -n 37 -e 1.647534
N -t 1.002585 -n 2 -e 1.647534
N -t 1.002585 -n 33 -e 1.647534
N -t 1.002585 -n 7 -e 1.647533
N -t 1.002586 -n 23 -e 1.647533
N -t 1.002586 -n 15 -e 1.647533
N -t 1.002586 -n 19 -e 1.647533
N -t 1.002586 -n 25 -e 1.647533
N -t 1.002586 -n 5 -e 1.647533
N -t 1.002586 -n 34 -e 1.647533
N -t 1.002586 -n 30 -e 1.647533
N -t 1.002586 -n 27 -e 1.647533
N -t 1.002586 -n 13 -e 1.647533
N -t 1.002586 -n 39 -e 1.647533
N -t 1.002586 -n 38 -e 1.647533
N -t 1.002586 -n 26 -e 1.647533
N -t 1.002586 -n 12 -e 1.647533
N -t 1.002586 -n 1 -e 1.647533
N -t 1.002586 -n 11 -e 1.647533
N -t 1.002586 -n 21 -e 1.647533
N -t 1.002586 -n 28 -e 1.647533
N -t 1.002586 -n 29 -e 1.647533
N -t 1.002586 -n 22 -e 1.647533
N -t 1.002586 -n 17 -e 1.647533
N -t 1.002586 -n 14 -e 1.647533
N -t 1.002586 -n 18 -e 1.647533
N -t 1.002586 -n 36 -e 1.647533
N -t 1.002586 -n 32 -e 1.647533
N -t 1.002586 -n 31 -e 1.647533
N -t 1.002586 -n 0 -e 1.647533
N -t 1.002586 -n 16 -e 1.647533
N -t 1.002586 -n 10 -e 1.647533
N -t 1.002587 -n 8 -e 1.647533
N -t 1.002587 -n 6 -e 1.647533
N -t 1.002587 -n 35 -e 1.647533
r 1.005202120 _9_ RTR  --- 0 AODV 48 [0 ffffffff 14 800] [energy 1.647534 ei 0.351 es 0.000 et 0.000 er 0.002] ------- [20:255 -1:255 30 0] [0x2 1 1 [8 0] [20 4]] (REQUEST)
r 1.005202147 _24_ RTR  --- 0 AODV 48 [0 ffffffff 14 800] [energy 1.647534 ei 0.351 es 0.000 et 0.000 er 0.002] ------- [20:255 -1:255 30 0] [0x2 1 1 [8 0] [20 4]] (REQUEST)
r 1.005202202 _3_ RTR  --- 0 AODV 48 [0 ffffffff 14 800] [energy 1.647534 ei 0.351 es 0.000 et 0.000 er 0.002] ------- [20:255 -1:255 30 0] [0x2 1 1 [8 0] [20 4]] (REQUEST)
r 1.005202345 _4_ RTR  --- 0 AODV 48 [0 ffffffff 14 800] [energy 1.647534 ei 0.351 es 0.000 et 0.000 er 0.002] ------- [20:255 -1:255 30 0] [0x2 1 1 [8 0] [20 4]] (REQUEST)
r 1.005202362 _37_ RTR  --- 0 AODV 48 [0 ffffffff 14 800] [energy 1.647534 ei 0.351 es 0.000 et 0.000 er 0.002] ------- [20:255 -1:255 30 0] [0x2 1 1 [8 0] [20 4]] (REQUEST)
r 1.005202381 _2_ RTR  --- 0 AODV 48 [0 ffffffff 14 800] [energy 1.647534 ei 0.351 es 0.000 et 0.000 er 0.002] ------- [20:255 -1:255 30 0] [0x2 1 1 [8 0] [20 4]] (REQUEST)
r 1.005202419 _33_ RTR  --- 0 AODV 48 [0 ffffffff 14 800] [energy 1.647534 ei 0.351 es 0.000 et 0.000 er 0.002] ------- [20:255 -1:255 30 0] [0x2 1 1 [8 0] [20 4]] (REQUEST)
r 1.005202444 _7_ RTR  --- 0 AODV 48 [0 ffffffff 14 800] [energy 1.647533 ei 0.351 es 0.000 et 0.000 er 0.002] ------- [20:255 -1:255 30 0] [0x2 1 1 [8 0] [20 4]] (REQUEST)
r 1.005202515 _23_ RTR  --- 0 AODV 48 [0 ffffffff 14 800] [energy 1.647533 ei 0.351 es 0.000 et 0.000 er 0.002] ------- [20:255 -1:255 30 0] [0x2 1 1 [8 0] [20 4]] (REQUEST)
r 1.005202574 _15_ RTR  --- 0 AODV 48 [0 ffffffff 14 800] [energy 1.647533 ei 0.351 es 0.000 et 0.000 er 0.002] ------- [20:255 -1:255 30 0] [0x2 1 1 [8 0] [20 4]] (REQUEST)
r 1.005202630 _19_ RTR  --- 0 AODV 48 [0 ffffffff 14 800] [energy 1.647533 ei 0.351 es 0.000 et 0.000 er 0.002] ------- [20:255 -1:255 30 0] [0x2 1 1 [8 0] [20 4]] (REQUEST)
r 1.005202638 _25_ RTR  --- 0 AODV 48 [0 ffffffff 14 800] [energy 1.647533 ei 0.351 es 0.000 et 0.000 er 0.002] ------- [20:255 -1:255 30 0] [0x2 1 1 [8 0] [20 4]] (REQUEST)
r 1.005202672 _5_ RTR  --- 0 AODV 48 [0 ffffffff 14 800] [energy 1.647533 ei 0.351 es 0.000 et 0.000 er 0.002] ------- [20:255 -1:255 30 0] [0x2 1 1 [8 0] [20 4]] (REQUEST)
r 1.005202732 _34_ RTR  --- 0 AODV 48 [0 ffffffff 14 800] [energy 1.647533 ei 0.351 es 0.000 et 0.000 er 0.002] ------- [20:255 -1:255 30 0] [0x2 1 1 [8 0] [20 4]] (REQUEST)
r 1.005202747 _30_ RTR  --- 0 AODV 48 [0 ffffffff 14 800] [energy 1.647533 ei 0.351 es 0.000 et 0.000 er 0.002] ------- [20:255 -1:255 30 0] [0x2 1 1 [8 0] [20 4]] (REQUEST)
r 1.005202830 _27_ RTR  --- 0 AODV 48 [0 ffffffff 14 800] [energy 1.647533 ei 0.351 es 0.000 et 0.000 er 0.002] ------- [20:255 -1:255 30 0] [0x2 1 1 [8 0] [20 4]] (REQUEST)
s 1.005597610 _15_ RTR  --- 0 AODV 48 [0 ffffffff 14 800] [energy 1.647533 ei 0.351 es 0.000 et 0.000 er 0.002] ------- [15:255 -1:255 29 0] [0x2 2 1 [8 0] [20 4]] (REQUEST)
s 1.005789726 _30_ RTR  --- 0 AODV 48 [0 ffffffff 14 800] [energy 1.647533 ei 0.351 es 0.000 et 0.000 er 0.002] ------- [30:255 -1:255 29 0] [0x2 2 1 [8 0] [20 4]] (REQUEST)
N -t 1.005817 -n 9 -e 1.645524
N -t 1.005817 -n 24 -e 1.645524
N -t 1.005817 -n 3 -e 1.645524
N -t 1.005817 -n 4 -e 1.645524
N -t 1.005817 -n 37 -e 1.645524
N -t 1.005817 -n 2 -e 1.645524
N -t 1.005817 -n 33 -e 1.645524
N -t 1.005817 -n 7 -e 1.645524
N -t 1.005818 -n 23 -e 1.645524
N -t 1.005818 -n 15 -e 1.645524
N -t 1.005818 -n 19 -e 1.645524
N -t 1.005818 -n 25 -e 1.645524
N -t 1.005818 -n 5 -e 1.645524
N -t 1.005818 -n 34 -e 1.645524
N -t 1.005818 -n 30 -e 1.645524
N -t 1.005818 -n 27 -e 1.645524
N -t 1.005818 -n 13 -e 1.645524
N -t 1.005818 -n 39 -e 1.645524
N -t 1.005818 -n 38 -e 1.645524
N -t 1.005818 -n 26 -e 1.645524
N -t 1.005818 -n 12 -e 1.645524
N -t 1.005818 -n 1 -e 1.645524
N -t 1.005818 -n 11 -e 1.645524
N -t 1.005818 -n 21 -e 1.645524
N -t 1.005818 -n 28 -e 1.645524
N -t 1.005818 -n 29 -e 1.645524
N -t 1.005818 -n 22 -e 1.645524
N -t 1.005818 -n 17 -e 1.645524
N -t 1.005818 -n 14 -e 1.645524
N -t 1.005818 -n 18 -e 1.645524
N -t 1.005818 -n 36 -e 1.645524
N -t 1.005818 -n 32 -e 1.645524
N -t 1.005818 -n 31 -e 1.645524
N -t 1.005818 -n 0 -e 1.645524
N -t 1.005818 -n 16 -e 1.645524
N -t 1.005818 -n 10 -e 1.645524
N -t 1.005819 -n 8 -e 1.645523
N -t 1.005819 -n 6 -e 1.645523
N -t 1.005819 -n 35 -e 1.645523
s 1.005847309 _33_ RTR  --- 0 AODV 48 [0 ffffffff 14 800] [energy 1.645524 ei 0.351 es 0.000 et 0.000 er 0.003] ------- [33:255 -1:255 29 0] [0x2 2 1 [8 0] [20 4]] (REQUEST)
s 1.006787499 _37_ RTR  --- 0 AODV 48 [0 ffffffff 14 800] [energy 1.645524 ei 0.351 es 0.000 et 0.000 er 0.003] ------- [37:255 -1:255 29 0] [0x2 2 1 [8 0] [20 4]] (REQUEST)
s 1.006969292 _7_ RTR  --- 0 AODV 48 [0 ffffffff 14 800] [energy 1.645524 ei 0.351 es 0.000 et 0.000 er 0.003] ------- [7:255 -1:255 29 0] [0x2 2 1 [8 0] [20 4]] (REQUEST)
s 1.007470979 _5_ RTR  --- 0 AODV 48 [0 ffffffff 14 800] [energy 1.645524 ei 0.351 es 0.000 et 0.000 er 0.003] ------- [5:255 -1:255 29 0] [0x2 2 1 [8 0] [20 4]] (REQUEST)
s 1.007557788 _2_ RTR  --- 0 AODV 48 [0 ffffffff 14 800] [energy 1.645524 ei 0.351 es 0.000 et 0.000 er 0.003] ------- [2:255 -1:255 29 0] [0x2 2 1 [8 0] [20 4]] (REQUEST)
N -t 1.008375 -n 39 -e 1.643750
N -t 1.008375 -n 19 -e 1.643750
N -t 1.008375 -n 23 -e 1.643750
N -t 1.008375 -n 33 -e 1.643606
N -t 1.008375 -n 26 -e 1.643750
N -t 1.008375 -n 1 -e 1.643750
N -t 1.008375 -n 13 -e 1.643750
N -t 1.008375 -n 15 -e 1.643350
N -t 1.008375 -n 27 -e 1.643750
N -t 1.008375 -n 29 -e 1.643750
N -t 1.008375 -n 9 -e 1.643750
N -t 1.008375 -n 5 -e 1.643750
N -t 1.008375 -n 20 -e 1.644633
N -t 1.008376 -n 3 -e 1.643750
N -t 1.008376 -n 7 -e 1.643750
N -t 1.008376 -n 14 -e 1.643750
N -t 1.008376 -n 24 -e 1.643750
N -t 1.008376 -n 12 -e 1.643750
N -t 1.008376 -n 28 -e 1.643750
N -t 1.008376 -n 25 -e 1.643750
N -t 1.008376 -n 4 -e 1.643750
N -t 1.008376 -n 17 -e 1.643750
N -t 1.008376 -n 11 -e 1.643750
N -t 1.008376 -n 37 -e 1.643350
N -t 1.008376 -n 2 -e 1.643750
N -t 1.008376 -n 38 -e 1.643750
N -t 1.008376 -n 31 -e 1.643750
N -t 1.008376 -n 22 -e 1.643750
N -t 1.008376 -n 0 -e 1.643750
N -t 1.008376 -n 34 -e 1.643750
N -t 1.008376 -n 8 -e 1.643750
N -t 1.008376 -n 21 -e 1.643750
N -t 1.008376 -n 10 -e 1.643750
N -t 1.008376 -n 6 -e 1.643750
N -t 1.008376 -n 16 -e 1.643750
N -t 1.008376 -n 35 -e 1.643750
N -t 1.008377 -n 36 -e 1.643750
N -t 1.008377 -n 18 -e 1.643750
N -t 1.008432 -n 23 -e 1.643704
N -t 1.008433 -n 19 -e 1.643704
N -t 1.008433 -n 9 -e 1.643704
N -t 1.008433 -n 30 -e 1.644146
N -t 1.008433 -n 20 -e 1.644588
N -t 1.008433 -n 15 -e 1.643304
N -t 1.008433 -n 3 -e 1.643704
N -t 1.008433 -n 39 -e 1.643704
N -t 1.008433 -n 24 -e 1.643704
N -t 1.008433 -n 27 -e 1.643704
N -t 1.008433 -n 13 -e 1.643704
N -t 1.008433 -n 7 -e 1.643704
N -t 1.008433 -n 5 -e 1.643704
N -t 1.008433 -n 26 -e 1.643704
N -t 1.008433 -n 1 -e 1.643704
N -t 1.008433 -n 4 -e 1.643704
N -t 1.008433 -n 37 -e 1.643304
N -t 1.008433 -n 25 -e 1.643704
N -t 1.008433 -n 2 -e 1.643704
N -t 1.008433 -n 29 -e 1.643704
N -t 1.008433 -n 12 -e 1.643704
N -t 1.008433 -n 28 -e 1.643704
N -t 1.008433 -n 14 -e 1.643704
N -t 1.008433 -n 11 -e 1.643704
N -t 1.008433 -n 34 -e 1.643704
N -t 1.008433 -n 38 -e 1.643704
N -t 1.008433 -n 17 -e 1.643704
N -t 1.008434 -n 21 -e 1.643704
N -t 1.008434 -n 22 -e 1.643704
N -t 1.008434 -n 31 -e 1.643704
N -t 1.008434 -n 0 -e 1.643704
N -t 1.008434 -n 10 -e 1.643704
N -t 1.008434 -n 16 -e 1.643704
N -t 1.008434 -n 8 -e 1.643704
N -t 1.008434 -n 6 -e 1.643704
N -t 1.008434 -n 36 -e 1.643704
N -t 1.008434 -n 18 -e 1.643704
N -t 1.008434 -n 32 -e 1.643730
N -t 1.008434 -n 35 -e 1.643704
r 1.008434120 _9_ RTR  --- 0 AODV 48 [0 ffffffff 14 800] [energy 1.643704 ei 0.352 es 0.000 et 0.000 er 0.005] ------- [20:255 -1:255 30 0] [0x2 1 24 [32 0] [20 50]] (REQUEST)
r 1.008434147 _24_ RTR  --- 0 AODV 48 [0 ffffffff 14 800] [energy 1.643704 ei 0.352 es 0.000 et 0.000 er 0.005] ------- [20:255 -1:255 30 0] [0x2 1 24 [32 0] [20 50]] (REQUEST)
r 1.008434202 _3_ RTR  --- 0 AODV 48 [0 ffffffff 14 800] [energy 1.643704 ei 0.352 es 0.000 et 0.000 er 0.005] ------- [20:255 -1:255 30 0] [0x2 1 24 [32 0] [20 50]] (REQUEST)
r 1.008434345 _4_ RTR  --- 0 AODV 48 [0 ffffffff 14 800] [energy 1.643704 ei 0.352 es 0.000 et 0.000 er 0.005] ------- [20:255 -1:255 30 0] [0x2 1 24 [32 0] [20 50]] (REQUEST)
r 1.008434362 _37_ RTR  --- 0 AODV 48 [0 ffffffff 14 800] [energy 1.643304 ei 0.352 es 0.000 et 0.000 er 0.005] ------- [20:255 -1:255 30 0] [0x2 1 24 [32 0] [20 50]] (REQUEST)
r 1.008434381 _2_ RTR  --- 0 AODV 48 [0 ffffffff 14 800] [energy 1.643704 ei 0.352 es 0.000 et 0.000 er 0.005] ------- [20:255 -1:255 30 0] [0x2 1 24 [32 0] [20 50]] (REQUEST)
r 1.008434419 _33_ RTR  --- 0 AODV 48 [0 ffffffff 14 800] [energy 1.643578 ei 0.351 es 0.000 et 0.000 er 0.005] ------- [20:255 -1:255 30 0] [0x2 1 24 [32 0] [20 50]] (REQUEST)
r 1.008434444 _7_ RTR  --- 0 AODV 48 [0 ffffffff 14 800] [energy 1.643704 ei 0.352 es 0.000 et 0.000 er 0.005] ------- [20:255 -1:255 30 0] [0x2 1 24 [32 0] [20 50]] (REQUEST)
r 1.008434515 _23_ RTR  --- 0 AODV 48 [0 ffffffff 14 800] [energy 1.643704 ei 0.352 es 0.000 et 0.000 er 0.005] ------- [20:255 -1:255 30 0] [0x2 1 24 [32 0] [20 50]] (REQUEST)
r 1.008434574 _15_ RTR  --- 0 AODV 48 [0 ffffffff 14 800] [energy 1.643304 ei 0.352 es 0.000 et 0.000 er 0.005] ------- [20:255 -1:255 30 0] [0x2 1 24 [32 0] [20 50]] (REQUEST)
r 1.008434630 _19_ RTR  --- 0 AODV 48 [0 ffffffff 14 800] [energy 1.643704 ei 0.352 es 0.000 et 0.000 er 0.005] ------- [20:255 -1:255 30 0] [0x2 1 24 [32 0] [20 50]] (REQUEST)
r 1.008434638 _25_ RTR  --- 0 AODV 48 [0 ffffffff 14 800] [energy 1.643704 ei 0.352 es 0.000 et 0.000 er 0.005] ------- [20:255 -1:255 30 0] [0x2 1 24 [32 0] [20 50]] (REQUEST)
r 1.008434672 _5_ RTR  --- 0 AODV 48 [0 ffffffff 14 800] [energy 1.643704 ei 0.352 es 0.000 et 0.000 er 0.005] ------- [20:255 -1:255 30 0] [0x2 1 24 [32 0] [20 50]] (REQUEST)
r 1.008434732 _34_ RTR  --- 0 AODV 48 [0 ffffffff 14 800] [energy 1.643704 ei 0.352 es 0.000 et 0.000 er 0.005] ------- [20:255 -1:255 30 0] [0x2 1 24 [32 0] [20 50]] (REQUEST)
r 1.008434747 _30_ RTR  --- 0 AODV 48 [0 ffffffff 14 800] [energy 1.644146 ei 0.351 es 0.000 et 0.001 er 0.003] ------- [20:255 -1:255 30 0] [0x2 1 24 [32 0] [20 50]] (REQUEST)
r 1.008434830 _27_ RTR  --- 0 AODV 48 [0 ffffffff 14 800] [energy 1.643704 ei 0.352 es 0.000 et 0.000 er 0.005] ------- [20:255 -1:255 30 0] [0x2 1 24 [32 0] [20 50]] (REQUEST)
s 1.008602444 _27_ RTR  --- 0 AODV 48 [0 ffffffff 14 800] [energy 1.643704 ei 0.352 es 0.000 et 0.000 er 0.005] ------- [27:255 -1:255 29 0] [0x2 2 1 [8 0] [20 4]] (REQUEST)
s 1.009099213 _37_ RTR  --- 0 AODV 48 [0 ffffffff 14 800] [energy 1.643304 ei 0.352 es 0.000 et 0.000 er 0.005] ------- [37:255 -1:255 29 0] [0x2 2 24 [32 0] [20 50]] (REQUEST)
s 1.009952059 _9_ RTR  --- 0 AODV 48 [0 ffffffff 14 800] [energy 1.643704 ei 0.352 es 0.000 et 0.000 er 0.005] ------- [9:255 -1:255 29 0] [0x2 2 24 [32 0] [20 50]] (REQUEST)
s 1.010049861 _9_ RTR  --- 0 AODV 48 [0 ffffffff 14 800] [energy 1.643704 ei 0.352 es 0.000 et 0.000 er 0.005] ------- [9:255 -1:255 29 0] [0x2 2 1 [8 0] [20 4]] (REQUEST)
s 1.010053390 _27_ RTR  --- 0 AODV 48 [0 ffffffff 14 800] [energy 1.643704 ei 0.352 es 0.000 et 0.000 er 0.005] ------- [27:255 -1:255 29 0] [0x2 2 24 [32 0] [20 50]] (REQUEST)
s 1.010493497 _5_ RTR  --- 0 AODV 48 [0 ffffffff 14 800] [energy 1.642904 ei 0.352 es 0.000 et 0.000 er 0.006] ------- [5:255 -1:255 29 0] [0x2 2 24 [32 0] [20 50]] (REQUEST)
s 1.010987643 _19_ RTR  --- 0 AODV 48 [0 ffffffff 14 800] [energy 1.643704 ei 0.352 es 0.000 et 0.000 er 0.005] ------- [19:255 -1:255 29 0] [0x2 2 1 [8 0] [20 4]] (REQUEST)
r 1.010991931 _39_ RTR  --- 0 AODV 48 [0 ffffffff 1e 800] [energy 1.643704 ei 0.352 es 0.000 et 0.000 er 0.005] ------- [30:255 -1:255 29 0] [0x2 2 1 [8 0] [20 4]] (REQUEST)
r 1.011049609 _9_ RTR  --- 0 AODV 48 [0 ffffffff 21 800] [energy 1.643704 ei 0.352 es 0.000 et 0.000 er 0.005] ------- [33:255 -1:255 29 0] [0x2 2 1 [8 0] [20 4]] (REQUEST)
r 1.011049728 _20_ RTR  --- 0 AODV 48 [0 ffffffff 21 800] [energy 1.643861 ei 0.351 es 0.000 et 0.002 er 0.003] ------- [33:255 -1:255 29 0] [0x2 2 1 [8 0] [20 4]] (REQUEST)
s 1.011063183 _15_ RTR  --- 0 AODV 48 [0 ffffffff 14 800] [energy 1.642904 ei 0.352 es 0.000 et 0.000 er 0.006] ------- [15:255 -1:255 29 0] [0x2 2 24 [32 0] [20 50]] (REQUEST)
N -t 1.011097 -n 9 -e 1.641893
N -t 1.011097 -n 24 -e 1.641893
N -t 1.011097 -n 3 -e 1.641893
N -t 1.011097 -n 4 -e 1.641893
N -t 1.011097 -n 37 -e 1.641349
N -t 1.011097 -n 2 -e 1.641493
N -t 1.011097 -n 33 -e 1.641767
N -t 1.011097 -n 7 -e 1.641093
N -t 1.011098 -n 23 -e 1.641893
N -t 1.011098 -n 15 -e 1.641093
N -t 1.011098 -n 19 -e 1.641893
N -t 1.011098 -n 25 -e 1.641893
N -t 1.011098 -n 5 -e 1.641093
N -t 1.011098 -n 34 -e 1.641893
N -t 1.011098 -n 30 -e 1.642335
N -t 1.011098 -n 27 -e 1.641749
N -t 1.011098 -n 13 -e 1.641893
N -t 1.011098 -n 39 -e 1.641893
N -t 1.011098 -n 38 -e 1.641893
N -t 1.011098 -n 26 -e 1.641893
N -t 1.011098 -n 12 -e 1.641893
N -t 1.011098 -n 1 -e 1.641893
N -t 1.011098 -n 11 -e 1.641893
N -t 1.011098 -n 21 -e 1.641893
N -t 1.011098 -n 28 -e 1.641893
N -t 1.011098 -n 29 -e 1.641893
N -t 1.011098 -n 22 -e 1.641893
N -t 1.011098 -n 17 -e 1.641893
N -t 1.011098 -n 14 -e 1.641893
N -t 1.011098 -n 18 -e 1.641893
N -t 1.011098 -n 36 -e 1.641893
N -t 1.011098 -n 32 -e 1.641919
N -t 1.011098 -n 31 -e 1.641893
N -t 1.011098 -n 0 -e 1.641893
N -t 1.011098 -n 16 -e 1.641893
N -t 1.011098 -n 10 -e 1.641893
N -t 1.011099 -n 8 -e 1.641893
N -t 1.011099 -n 6 -e 1.641893
N -t 1.011099 -n 35 -e 1.641893
N -t 1.011101 -n 2 -e 1.641491
N -t 1.011101 -n 24 -e 1.641891
N -t 1.011101 -n 4 -e 1.641891
N -t 1.011101 -n 20 -e 1.642815