s 1.000000000 _0_ AGT  --- 0 tcp 40 [0 0 0 0] ------- [0:0 10:0 32 0] [0 0] 0 0
r 1.000000000 _0_ RTR  --- 0 tcp 40 [0 0 0 0] ------- [0:0 10:0 32 0] [0 0] 0 0
s 1.000000000 _1_ AGT  --- 1 tcp 40 [0 0 0 0] ------- [1:0 11:0 32 0] [0 0] 0 0
r 1.000000000 _1_ RTR  --- 1 tcp 40 [0 0 0 0] ------- [1:0 11:0 32 0] [0 0] 0 0
s 1.000000000 _2_ AGT  --- 2 tcp 40 [0 0 0 0] ------- [2:0 12:0 32 0] [0 0] 0 0
r 1.000000000 _2_ RTR  --- 2 tcp 40 [0 0 0 0] ------- [2:0 12:0 32 0] [0 0] 0 0
s 1.000000000 _3_ AGT  --- 3 tcp 40 [0 0 0 0] ------- [3:0 13:0 32 0] [0 0] 0 0
r 1.000000000 _3_ RTR  --- 3 tcp 40 [0 0 0 0] ------- [3:0 13:0 32 0] [0 0] 0 0
s 1.000000000 _4_ AGT  --- 4 tcp 40 [0 0 0 0] ------- [4:0 14:0 32 0] [0 0] 0 0
r 1.000000000 _4_ RTR  --- 4 tcp 40 [0 0 0 0] ------- [4:0 14:0 32 0] [0 0] 0 0
s 1.000000000 _5_ AGT  --- 5 tcp 40 [0 0 0 0] ------- [5:0 15:0 32 0] [0 0] 0 0
r 1.000000000 _5_ RTR  --- 5 tcp 40 [0 0 0 0] ------- [5:0 15:0 32 0] [0 0] 0 0
s 1.000000000 _6_ AGT  --- 6 tcp 40 [0 0 0 0] ------- [6:0 16:0 32 0] [0 0] 0 0
r 1.000000000 _6_ RTR  --- 6 tcp 40 [0 0 0 0] ------- [6:0 16:0 32 0] [0 0] 0 0
s 1.000000000 _7_ AGT  --- 7 tcp 40 [0 0 0 0] ------- [7:0 17:0 32 0] [0 0] 0 0
r 1.000000000 _7_ RTR  --- 7 tcp 40 [0 0 0 0] ------- [7:0 17:0 32 0] [0 0] 0 0
s 1.000000000 _8_ AGT  --- 8 tcp 40 [0 0 0 0] ------- [8:0 18:0 32 0] [0 0] 0 0
r 1.000000000 _8_ RTR  --- 8 tcp 40 [0 0 0 0] ------- [8:0 18:0 32 0] [0 0] 0 0
s 1.000000000 _9_ AGT  --- 9 tcp 40 [0 0 0 0] ------- [9:0 19:0 32 0] [0 0] 0 0
r 1.000000000 _9_ RTR  --- 9 tcp 40 [0 0 0 0] ------- [9:0 19:0 32 0] [0 0] 0 0
s 1.000000000 _0_ RTR  --- 0 AODV 48 [0 0 0 0] ------- [0:255 -1:255 30 0] [0x2 1 1 [10 0] [0 4]] (REQUEST)
s 1.000000000 _1_ RTR  --- 0 AODV 48 [0 0 0 0] ------- [1:255 -1:255 30 0] [0x2 1 1 [11 0] [1 4]] (REQUEST)
s 1.000000000 _2_ RTR  --- 0 AODV 48 [0 0 0 0] ------- [2:255 -1:255 30 0] [0x2 1 1 [12 0] [2 4]] (REQUEST)
s 1.000000000 _3_ RTR  --- 0 AODV 48 [0 0 0 0] ------- [3:255 -1:255 30 0] [0x2 1 1 [13 0] [3 4]] (REQUEST)
s 1.000000000 _4_ RTR  --- 0 AODV 48 [0 0 0 0] ------- [4:255 -1:255 30 0] [0x2 1 1 [14 0] [4 4]] (REQUEST)
s 1.000000000 _5_ RTR  --- 0 AODV 48 [0 0 0 0] ------- [5:255 -1:255 30 0] [0x2 1 1 [15 0] [5 4]] (REQUEST)
s 1.000000000 _6_ RTR  --- 0 AODV 48 [0 0 0 0] ------- [6:255 -1:255 30 0] [0x2 1 1 [16 0] [6 4]] (REQUEST)
s 1.000000000 _7_ RTR  --- 0 AODV 48 [0 0 0 0] ------- [7:255 -1:255 30 0] [0x2 1 1 [17 0] [7 4]] (REQUEST)
s 1.000000000 _8_ RTR  --- 0 AODV 48 [0 0 0 0] ------- [8:255 -1:255 30 0] [0x2 1 1 [18 0] [8 4]] (REQUEST)
s 1.000000000 _9_ RTR  --- 0 AODV 48 [0 0 0 0] ------- [9:255 -1:255 30 0] [0x2 1 1 [19 0] [9 4]] (REQUEST)
r 1.000988118 _1_ RTR  --- 0 AODV 48 [0 ffffffff 2 800] ------- [2:255 -1:255 30 0] [0x2 1 1 [12 0] [2 4]] (REQUEST)
r 1.000988118 _3_ RTR  --- 0 AODV 48 [0 ffffffff 2 800] ------- [2:255 -1:255 30 0] [0x2 1 1 [12 0] [2 4]] (REQUEST)
r 1.000988236 _0_ RTR  --- 0 AODV 48 [0 ffffffff 2 800] ------- [2:255 -1:255 30 0] [0x2 1 1 [12 0] [2 4]] (REQUEST)
r 1.000988236 _4_ RTR  --- 0 AODV 48 [0 ffffffff 2 800] ------- [2:255 -1:255 30 0] [0x2 1 1 [12 0] [2 4]] (REQUEST)
r 1.000988354 _5_ RTR  --- 0 AODV 48 [0 ffffffff 2 800] ------- [2:255 -1:255 30 0] [0x2 1 1 [12 0] [2 4]] (REQUEST)
r 1.000988471 _6_ RTR  --- 0 AODV 48 [0 ffffffff 2 800] ------- [2:255 -1:255 30 0] [0x2 1 1 [12 0] [2 4]] (REQUEST)
r 1.000988589 _7_ RTR  --- 0 AODV 48 [0 ffffffff 2 800] ------- [2:255 -1:255 30 0] [0x2 1 1 [12 0] [2 4]] (REQUEST)
r 1.000988707 _8_ RTR  --- 0 AODV 48 [0 ffffffff 2 800] ------- [2:255 -1:255 30 0] [0x2 1 1 [12 0] [2 4]] (REQUEST)
r 1.000988825 _9_ RTR  --- 0 AODV 48 [0 ffffffff 2 800] ------- [2:255 -1:255 30 0] [0x2 1 1 [12 0] [2 4]] (REQUEST)
r 1.002006354 _3_ RTR  --- 0 AODV 48 [0 ffffffff 4 800] ------- [4:255 -1:255 30 0] [0x2 1 1 [14 0] [4 4]] (REQUEST)
r 1.002006471 _2_ RTR  --- 0 AODV 48 [0 ffffffff 4 800] ------- [4:255 -1:255 30 0] [0x2 1 1 [14 0] [4 4]] (REQUEST)
r 1.002006589 _1_ RTR  --- 0 AODV 48 [0 ffffffff 4 800] ------- [4:255 -1:255 30 0] [0x2 1 1 [14 0] [4 4]] (REQUEST)
s 1.003160420 _9_ RTR  --- 0 AODV 48 [0 ffffffff 2 800] ------- [9:255 -1:255 29 0] [0x2 2 1 [12 0] [2 4]] (REQUEST)
r 1.003349414 _0_ RTR  --- 0 AODV 48 [0 ffffffff 1 800] ------- [1:255 -1:255 30 0] [0x2 1 1 [11 0] [1 4]] (REQUEST)
r 1.003349414 _2_ RTR  --- 0 AODV 48 [0 ffffffff 1 800] ------- [1:255 -1:255 30 0] [0x2 1 1 [11 0] [1 4]] (REQUEST)
r 1.003349532 _3_ RTR  --- 0 AODV 48 [0 ffffffff 1 800] ------- [1:255 -1:255 30 0] [0x2 1 1 [11 0] [1 4]] (REQUEST)
r 1.003349650 _4_ RTR  --- 0 AODV 48 [0 ffffffff 1 800] ------- [1:255 -1:255 30 0] [0x2 1 1 [11 0] [1 4]] (REQUEST)
r 1.003349768 _5_ RTR  --- 0 AODV 48 [0 ffffffff 1 800] ------- [1:255 -1:255 30 0] [0x2 1 1 [11 0] [1 4]] (REQUEST)
r 1.003349886 _6_ RTR  --- 0 AODV 48 [0 ffffffff 1 800] ------- [1:255 -1:255 30 0] [0x2 1 1 [11 0] [1 4]] (REQUEST)
r 1.003350003 _7_ RTR  --- 0 AODV 48 [0 ffffffff 1 800] ------- [1:255 -1:255 30 0] [0x2 1 1 [11 0] [1 4]] (REQUEST)
r 1.003350121 _8_ RTR  --- 0 AODV 48 [0 ffffffff 1 800] ------- [1:255 -1:255 30 0] [0x2 1 1 [11 0] [1 4]] (REQUEST)
s 1.003568997 _3_ RTR  --- 0 AODV 48 [0 ffffffff 2 800] ------- [3:255 -1:255 29 0] [0x2 2 1 [12 0] [2 4]] (REQUEST)
s 1.003934148 _8_ RTR  --- 0 AODV 48 [0 ffffffff 1 800] ------- [8:255 -1:255 29 0] [0x2 2 1 [11 0] [1 4]] (REQUEST)
r 1.004268003 _5_ RTR  --- 0 AODV 48 [0 ffffffff 6 800] ------- [6:255 -1:255 30 0] [0x2 1 1 [16 0] [6 4]] (REQUEST)
r 1.004268003 _7_ RTR  --- 0 AODV 48 [0 ffffffff 6 800] ------- [6:255 -1:255 30 0] [0x2 1 1 [16 0] [6 4]] (REQUEST)
r 1.004268121 _4_ RTR  --- 0 AODV 48 [0 ffffffff 6 800] ------- [6:255 -1:255 30 0] [0x2 1 1 [16 0] [6 4]] (REQUEST)
r 1.004268121 _8_ RTR  --- 0 AODV 48 [0 ffffffff 6 800] ------- [6:255 -1:255 30 0] [0x2 1 1 [16 0] [6 4]] (REQUEST)
r 1.004268239 _3_ RTR  --- 0 AODV 48 [0 ffffffff 6 800] ------- [6:255 -1:255 30 0] [0x2 1 1 [16 0] [6 4]] (REQUEST)
r 1.004268239 _9_ RTR  --- 0 AODV 48 [0 ffffffff 6 800] ------- [6:255 -1:255 30 0] [0x2 1 1 [16 0] [6 4]] (REQUEST)
r 1.004268357 _2_ RTR  --- 0 AODV 48 [0 ffffffff 6 800] ------- [6:255 -1:255 30 0] [0x2 1 1 [16 0] [6 4]] (REQUEST)
r 1.004268357 _10_ RTR  --- 0 AODV 48 [0 ffffffff 6 800] ------- [6:255 -1:255 30 0] [0x2 1 1 [16 0] [6 4]] (REQUEST)
r 1.004268475 _1_ RTR  --- 0 AODV 48 [0 ffffffff 6 800] ------- [6:255 -1:255 30 0] [0x2 1 1 [16 0] [6 4]] (REQUEST)
r 1.004268475 _11_ RTR  --- 0 AODV 48 [0 ffffffff 6 800] ------- [6:255 -1:255 30 0] [0x2 1 1 [16 0] [6 4]] (REQUEST)
r 1.004268593 _0_ RTR  --- 0 AODV 48 [0 ffffffff 6 800] ------- [6:255 -1:255 30 0] [0x2 1 1 [16 0] [6 4]] (REQUEST)
r 1.004268593 _12_ RTR  --- 0 AODV 48 [0 ffffffff 6 800] ------- [6:255 -1:255 30 0] [0x2 1 1 [16 0] [6 4]] (REQUEST)
r 1.004268711 _13_ RTR  --- 0 AODV 48 [0 ffffffff 6 800] ------- [6:255 -1:255 30 0] [0x2 1 1 [16 0] [6 4]] (REQUEST)
s 1.004441399 _0_ RTR  --- 0 AODV 48 [0 ffffffff 1 800] ------- [0:255 -1:255 29 0] [0x2 2 1 [11 0] [1 4]] (REQUEST)
s 1.004470317 _7_ RTR  --- 0 AODV 48 [0 ffffffff 1 800] ------- [7:255 -1:255 29 0] [0x2 2 1 [11 0] [1 4]] (REQUEST)
s 1.004475528 _1_ RTR  --- 0 AODV 48 [0 ffffffff 2 800] ------- [1:255 -1:255 29 0] [0x2 2 1 [12 0] [2 4]] (REQUEST)
s 1.004544167 _12_ RTR  --- 0 AODV 48 [0 ffffffff 6 800] ------- [12:255 -1:255 29 0] [0x2 2 1 [16 0] [6 4]] (REQUEST)
s 1.005075092 _0_ RTR  --- 0 AODV 48 [0 ffffffff 2 800] ------- [0:255 -1:255 29 0] [0x2 2 1 [12 0] [2 4]] (REQUEST)
r 1.005186711 _1_ RTR  --- 0 AODV 48 [0 ffffffff 0 800] ------- [0:255 -1:255 30 0] [0x2 1 1 [10 0] [0 4]] (REQUEST)
r 1.005186828 _2_ RTR  --- 0 AODV 48 [0 ffffffff 0 800] ------- [0:255 -1:255 30 0] [0x2 1 1 [10 0] [0 4]] (REQUEST)
r 1.005186946 _3_ RTR  --- 0 AODV 48 [0 ffffffff 0 800] ------- [0:255 -1:255 30 0] [0x2 1 1 [10 0] [0 4]] (REQUEST)
r 1.005187064 _4_ RTR  --- 0 AODV 48 [0 ffffffff 0 800] ------- [0:255 -1:255 30 0] [0x2 1 1 [10 0] [0 4]] (REQUEST)
r 1.005187182 _5_ RTR  --- 0 AODV 48 [0 ffffffff 0 800] ------- [0:255 -1:255 30 0] [0x2 1 1 [10 0] [0 4]] (REQUEST)
r 1.005187300 _6_ RTR  --- 0 AODV 48 [0 ffffffff 0 800] ------- [0:255 -1:255 30 0] [0x2 1 1 [10 0] [0 4]] (REQUEST)
r 1.005187418 _7_ RTR  --- 0 AODV 48 [0 ffffffff 0 800] ------- [0:255 -1:255 30 0] [0x2 1 1 [10 0] [0 4]] (REQUEST)
s 1.005223184 _3_ RTR  --- 0 AODV 48 [0 ffffffff 1 800] ------- [3:255 -1:255 29 0] [0x2 2 1 [11 0] [1 4]] (REQUEST)
s 1.005499156 _4_ RTR  --- 0 AODV 48 [0 ffffffff 6 800] ------- [4:255 -1:255 29 0] [0x2 2 1 [16 0] [6 4]] (REQUEST)
s 1.005649513 _5_ RTR  --- 0 AODV 48 [0 ffffffff 2 800] ------- [5:255 -1:255 29 0] [0x2 2 1 [12 0] [2 4]] (REQUEST)
r 1.006085536 _6_ RTR  --- 0 AODV 48 [0 ffffffff 7 800] ------- [7:255 -1:255 29 0] [0x2 2 1 [11 0] [1 4]] (REQUEST)
r 1.006085536 _8_ RTR  --- 0 AODV 48 [0 ffffffff 7 800] ------- [7:255 -1:255 29 0] [0x2 2 1 [11 0] [1 4]] (REQUEST)
r 1.006085653 _5_ RTR  --- 0 AODV 48 [0 ffffffff 7 800] ------- [7:255 -1:255 29 0] [0x2 2 1 [11 0] [1 4]] (REQUEST)
r 1.006085653 _9_ RTR  --- 0 AODV 48 [0 ffffffff 7 800] ------- [7:255 -1:255 29 0] [0x2 2 1 [11 0] [1 4]] (REQUEST)
r 1.006085771 _4_ RTR  --- 0 AODV 48 [0 ffffffff 7 800] ------- [7:255 -1:255 29 0] [0x2 2 1 [11 0] [1 4]] (REQUEST)
r 1.006085771 _10_ RTR  --- 0 AODV 48 [0 ffffffff 7 800] ------- [7:255 -1:255 29 0] [0x2 2 1 [11 0] [1 4]] (REQUEST)
r 1.006085889 _3_ RTR  --- 0 AODV 48 [0 ffffffff 7 800] ------- [7:255 -1:255 29 0] [0x2 2 1 [11 0] [1 4]] (REQUEST)
r 1.006085889 _11_ RTR  --- 0 AODV 48 [0 ffffffff 7 800] ------- [7:255 -1:255 29 0] [0x2 2 1 [11 0] [1 4]] (REQUEST)
s 1.006085889 _11_ RTR  --- 0 AODV 44 [0 0 0 0] ------- [11:255 1:255 30 7] [0x4 1 [11 4] 10.000000] (REPLY)
r 1.006086007 _2_ RTR  --- 0 AODV 48 [0 ffffffff 7 800] ------- [7:255 -1:255 29 0] [0x2 2 1 [11 0] [1 4]] (REQUEST)
r 1.006086007 _12_ RTR  --- 0 AODV 48 [0 ffffffff 7 800] ------- [7:255 -1:255 29 0] [0x2 2 1 [11 0] [1 4]] (REQUEST)
r 1.006086125 _1_ RTR  --- 0 AODV 48 [0 ffffffff 7 800] ------- [7:255 -1:255 29 0] [0x2 2 1 [11 0] [1 4]] (REQUEST)
r 1.006086125 _13_ RTR  --- 0 AODV 48 [0 ffffffff 7 800] ------- [7:255 -1:255 29 0] [0x2 2 1 [11 0] [1 4]] (REQUEST)
r 1.006086243 _0_ RTR  --- 0 AODV 48 [0 ffffffff 7 800] ------- [7:255 -1:255 29 0] [0x2 2 1 [11 0] [1 4]] (REQUEST)
r 1.006086243 _14_ RTR  --- 0 AODV 48 [0 ffffffff 7 800] ------- [7:255 -1:255 29 0] [0x2 2 1 [11 0] [1 4]] (REQUEST)
s 1.006100869 _6_ RTR  --- 0 AODV 48 [0 ffffffff 0 800] ------- [6:255 -1:255 29 0] [0x2 2 1 [10 0] [0 4]] (REQUEST)
s 1.006174724 _4_ RTR  --- 0 AODV 48 [0 ffffffff 2 800] ------- [4:255 -1:255 29 0] [0x2 2 1 [12 0] [2 4]] (REQUEST)
s 1.006838177 _3_ RTR  --- 0 AODV 48 [0 ffffffff 6 800] ------- [3:255 -1:255 29 0] [0x2 2 1 [16 0] [6 4]] (REQUEST)
s 1.006886716 _1_ RTR  --- 0 AODV 48 [0 ffffffff 6 800] ------- [1:255 -1:255 29 0] [0x2 2 1 [16 0] [6 4]] (REQUEST)
s 1.006968244 _14_ RTR  --- 0 AODV 48 [0 ffffffff 7 800] ------- [14:255 -1:255 28 0] [0x2 3 1 [11 0] [1 4]] (REQUEST)
s 1.006974343 _4_ RTR  --- 0 AODV 48 [0 ffffffff 0 800] ------- [4:255 -1:255 29 0] [0x2 2 1 [10 0] [0 4]] (REQUEST)
r 1.007024243 _0_ RTR  --- 0 AODV 48 [0 ffffffff 1 800] ------- [1:255 -1:255 29 0] [0x2 2 1 [12 0] [2 4]] (REQUEST)
r 1.007024243 _2_ RTR  --- 0 AODV 48 [0 ffffffff 1 800] ------- [1:255 -1:255 29 0] [0x2 2 1 [12 0] [2 4]] (REQUEST)
r 1.007024360 _3_ RTR  --- 0 AODV 48 [0 ffffffff 1 800] ------- [1:255 -1:255 29 0] [0x2 2 1 [12 0] [2 4]] (REQUEST)
r 1.007024478 _4_ RTR  --- 0 AODV 48 [0 ffffffff 1 800] ------- [1:255 -1:255 29 0] [0x2 2 1 [12 0] [2 4]] (REQUEST)
r 1.007024596 _5_ RTR  --- 0 AODV 48 [0 ffffffff 1 800] ------- [1:255 -1:255 29 0] [0x2 2 1 [12 0] [2 4]] (REQUEST)
r 1.007024714 _6_ RTR  --- 0 AODV 48 [0 ffffffff 1 800] ------- [1:255 -1:255 29 0] [0x2 2 1 [12 0] [2 4]] (REQUEST)
r 1.007024832 _7_ RTR  --- 0 AODV 48 [0 ffffffff 1 800] ------- [1:255 -1:255 29 0] [0x2 2 1 [12 0] [2 4]] (REQUEST)
r 1.007024950 _8_ RTR  --- 0 AODV 48 [0 ffffffff 1 800] ------- [1:255 -1:255 29 0] [0x2 2 1 [12 0] [2 4]] (REQUEST)
s 1.007254169 _2_ RTR  --- 0 AODV 48 [0 ffffffff 0 800] ------- [2:255 -1:255 29 0] [0x2 2 1 [10 0] [0 4]] (REQUEST)
s 1.007391489 _2_ RTR  --- 0 AODV 48 [0 ffffffff 1 800] ------- [2:255 -1:255 29 0] [0x2 2 1 [11 0] [1 4]] (REQUEST)
s 1.007541881 _13_ RTR  --- 0 AODV 48 [0 ffffffff 6 800] ------- [13:255 -1:255 29 0] [0x2 2 1 [16 0] [6 4]] (REQUEST)
s 1.007624631 _7_ RTR  --- 0 AODV 48 [0 ffffffff 6 800] ------- [7:255 -1:255 29 0] [0x2 2 1 [16 0] [6 4]] (REQUEST)
s 1.007911540 _6_ RTR  --- 0 AODV 48 [0 ffffffff 2 800] ------- [6:255 -1:255 29 0] [0x2 2 1 [12 0] [2 4]] (REQUEST)
s 1.008525466 _0_ RTR  --- 0 AODV 48 [0 ffffffff 6 800] ------- [0:255 -1:255 29 0] [0x2 2 1 [16 0] [6 4]] (REQUEST)
s 1.008779843 _3_ RTR  --- 0 AODV 48 [0 ffffffff 4 800] ------- [3:255 -1:255 29 0] [0x2 2 1 [14 0] [4 4]] (REQUEST)
r 1.009304950 _4_ RTR  --- 0 AODV 48 [0 ffffffff 5 800] ------- [5:255 -1:255 29 0] [0x2 2 1 [12 0] [2 4]] (REQUEST)
r 1.009304950 _6_ RTR  --- 0 AODV 48 [0 ffffffff 5 800] ------- [5:255 -1:255 29 0] [0x2 2 1 [12 0] [2 4]] (REQUEST)
r 1.009305068 _3_ RTR  --- 0 AODV 48 [0 ffffffff 5 800] ------- [5:255 -1:255 29 0] [0x2 2 1 [12 0] [2 4]] (REQUEST)
r 1.009305185 _2_ RTR  --- 0 AODV 48 [0 ffffffff 5 800] ------- [5:255 -1:255 29 0] [0x2 2 1 [12 0] [2 4]] (REQUEST)
r 1.009305185 _10_ RTR  --- 0 AODV 48 [0 ffffffff 9 800] ------- [9:255 -1:255 30 0] [0x2 1 1 [19 0] [9 4]] (REQUEST)
r 1.009305303 _1_ RTR  --- 0 AODV 48 [0 ffffffff 5 800] ------- [5:255 -1:255 29 0] [0x2 2 1 [12 0] [2 4]] (REQUEST)
r 1.009305421 _0_ RTR  --- 0 AODV 48 [0 ffffffff 5 800] ------- [5:255 -1:255 29 0] [0x2 2 1 [12 0] [2 4]] (REQUEST)
s 1.009386959 _8_ RTR  --- 0 AODV 48 [0 ffffffff 2 800] ------- [8:255 -1:255 29 0] [0x2 2 1 [12 0] [2 4]] (REQUEST)
s 1.009609262 _7_ RTR  --- 0 AODV 48 [0 ffffffff 2 800] ------- [7:255 -1:255 29 0] [0x2 2 1 [12 0] [2 4]] (REQUEST)
s 1.009628790 _2_ RTR  --- 0 AODV 48 [0 ffffffff 4 800] ------- [2:255 -1:255 29 0] [0x2 2 1 [14 0] [4 4]] (REQUEST)
s 1.009716577 _2_ RTR  --- 0 AODV 48 [0 ffffffff 6 800] ------- [2:255 -1:255 29 0] [0x2 2 1 [16 0] [6 4]] (REQUEST)
s 1.009816872 _11_ RTR  --- 0 AODV 48 [0 ffffffff 6 800] ------- [11:255 -1:255 29 0] [0x2 2 1 [16 0] [6 4]] (REQUEST)
s 1.010104635 _7_ RTR  --- 0 AODV 48 [0 ffffffff 0 800] ------- [7:255 -1:255 29 0] [0x2 2 1 [10 0] [0 4]] (REQUEST)
s 1.010218277 _5_ RTR  --- 0 AODV 48 [0 ffffffff 6 800] ------- [5:255 -1:255 29 0] [0x2 2 1 [16 0] [6 4]] (REQUEST)
s 1.010298325 _13_ RTR  --- 0 AODV 48 [0 ffffffff 7 800] ------- [13:255 -1:255 28 0] [0x2 3 1 [11 0] [1 4]] (REQUEST)
r 1.010647893 _12_ RTR  --- 0 AODV 48 [0 ffffffff d 800] ------- [13:255 -1:255 29 0] [0x2 2 1 [16 0] [6 4]] (REQUEST)
r 1.010647893 _14_ RTR  --- 0 AODV 48 [0 ffffffff d 800] ------- [13:255 -1:255 29 0] [0x2 2 1 [16 0] [6 4]] (REQUEST)
r 1.010648010 _11_ RTR  --- 0 AODV 48 [0 ffffffff d 800] ------- [13:255 -1:255 29 0] [0x2 2 1 [16 0] [6 4]] (REQUEST)
r 1.010648010 _15_ RTR  --- 0 AODV 48 [0 ffffffff d 800] ------- [13:255 -1:255 29 0] [0x2 2 1 [16 0] [6 4]] (REQUEST)
r 1.010648128 _10_ RTR  --- 0 AODV 48 [0 ffffffff d 800] ------- [13:255 -1:255 29 0] [0x2 2 1 [16 0] [6 4]] (REQUEST)
r 1.010648128 _16_ RTR  --- 0 AODV 48 [0 ffffffff d 800] ------- [13:255 -1:255 29 0] [0x2 2 1 [16 0] [6 4]] (REQUEST)
s 1.010648128 _16_ RTR  --- 0 AODV 44 [0 0 0 0] ------- [16:255 6:255 30 13] [0x4 1 [16 4] 10.000000] (REPLY)
r 1.010648246 _9_ RTR  --- 0 AODV 48 [0 ffffffff d 800] ------- [13:255 -1:255 29 0] [0x2 2 1 [16 0] [6 4]] (REQUEST)
r 1.010648246 _17_ RTR  --- 0 AODV 48 [0 ffffffff d 800] ------- [13:255 -1:255 29 0] [0x2 2 1 [16 0] [6 4]] (REQUEST)
r 1.010648364 _8_ RTR  --- 0 AODV 48 [0 ffffffff d 800] ------- [13:255 -1:255 29 0] [0x2 2 1 [16 0] [6 4]] (REQUEST)
r 1.010648364 _18_ RTR  --- 0 AODV 48 [0 ffffffff d 800] ------- [13:255 -1:255 29 0] [0x2 2 1 [16 0] [6 4]] (REQUEST)
r 1.010648482 _7_ RTR  --- 0 AODV 48 [0 ffffffff d 800] ------- [13:255 -1:255 29 0] [0x2 2 1 [16 0] [6 4]] (REQUEST)
r 1.010648482 _19_ RTR  --- 0 AODV 48 [0 ffffffff d 800] ------- [13:255 -1:255 29 0] [0x2 2 1 [16 0] [6 4]] (REQUEST)
r 1.010648600 _6_ RTR  --- 0 AODV 48 [0 ffffffff d 800] ------- [13:255 -1:255 29 0] [0x2 2 1 [16 0] [6 4]] (REQUEST)
s 1.010650227 _19_ RTR  --- 0 AODV 48 [0 ffffffff d 800] ------- [19:255 -1:255 28 0] [0x2 3 1 [16 0] [6 4]] (REQUEST)
s 1.010954360 _8_ RTR  --- 0 AODV 48 [0 ffffffff 6 800] ------- [8:255 -1:255 29 0] [0x2 2 1 [16 0] [6 4]] (REQUEST)
s 1.011056044 _1_ RTR  --- 0 AODV 48 [0 ffffffff 4 800] ------- [1:255 -1:255 29 0] [0x2 2 1 [14 0] [4 4]] (REQUEST)
s 1.011254971 _9_ RTR  --- 0 AODV 48 [0 ffffffff 6 800] ------- [9:255 -1:255 29 0] [0x2 2 1 [16 0] [6 4]] (REQUEST)
s 1.011414757 _10_ RTR  --- 0 AODV 48 [0 ffffffff 7 800] ------- [10:255 -1:255 28 0] [0x2 3 1 [11 0] [1 4]] (REQUEST)
r 1.011586482 _7_ RTR  --- 0 AODV 48 [0 ffffffff 8 800] ------- [8:255 -1:255 30 0] [0x2 1 1 [18 0] [8 4]] (REQUEST)
r 1.011586482 _9_ RTR  --- 0 AODV 48 [0 ffffffff 8 800] ------- [8:255 -1:255 30 0] [0x2 1 1 [18 0] [8 4]] (REQUEST)
r 1.011586600 _6_ RTR  --- 0 AODV 48 [0 ffffffff 8 800] ------- [8:255 -1:255 30 0] [0x2 1 1 [18 0] [8 4]] (REQUEST)
r 1.011586600 _10_ RTR  --- 0 AODV 48 [0 ffffffff 8 800] ------- [8:255 -1:255 30 0] [0x2 1 1 [18 0] [8 4]] (REQUEST)
r 1.011586718 _5_ RTR  --- 0 AODV 48 [0 ffffffff 8 800] ------- [8:255 -1:255 30 0] [0x2 1 1 [18 0] [8 4]] (REQUEST)
r 1.011586718 _11_ RTR  --- 0 AODV 48 [0 ffffffff 8 800] ------- [8:255 -1:255 30 0] [0x2 1 1 [18 0] [8 4]] (REQUEST)
r 1.011586835 _4_ RTR  --- 0 AODV 48 [0 ffffffff 8 800] ------- [8:255 -1:255 30 0] [0x2 1 1 [18 0] [8 4]] (REQUEST)
r 1.011586835 _12_ RTR  --- 0 AODV 48 [0 ffffffff 8 800] ------- [8:255 -1:255 30 0] [0x2 1 1 [18 0] [8 4]] (REQUEST)
r 1.011586953 _3_ RTR  --- 0 AODV 48 [0 ffffffff 8 800] ------- [8:255 -1:255 30 0] [0x2 1 1 [18 0] [8 4]] (REQUEST)
r 1.011586953 _13_ RTR  --- 0 AODV 48 [0 ffffffff 8 800] ------- [8:255 -1:255 30 0] [0x2 1 1 [18 0] [8 4]] (REQUEST)
r 1.011587071 _2_ RTR  --- 0 AODV 48 [0 ffffffff 8 800] ------- [8:255 -1:255 30 0] [0x2 1 1 [18 0] [8 4]] (REQUEST)
r 1.011587071 _14_ RTR  --- 0 AODV 48 [0 ffffffff 8 800] ------- [8:255 -1:255 30 0] [0x2 1 1 [18 0] [8 4]] (REQUEST)
r 1.011587189 _1_ RTR  --- 0 AODV 48 [0 ffffffff 8 800] ------- [8:255 -1:255 30 0] [0x2 1 1 [18 0] [8 4]] (REQUEST)
r 1.011587189 _15_ RTR  --- 0 AODV 48 [0 ffffffff 8 800] ------- [8:255 -1:255 30 0] [0x2 1 1 [18 0] [8 4]] (REQUEST)
s 1.011620102 _10_ RTR  --- 0 AODV 48 [0 ffffffff 8 800] ------- [10:255 -1:255 29 0] [0x2 2 1 [18 0] [8 4]] (REQUEST)
s 1.011906367 _13_ RTR  --- 0 AODV 48 [0 ffffffff 8 800] ------- [13:255 -1:255 29 0] [0x2 2 1 [18 0] [8 4]] (REQUEST)
s 1.011914405 _7_ RTR  --- 0 AODV 48 [0 ffffffff 8 800] ------- [7:255 -1:255 29 0] [0x2 2 1 [18 0] [8 4]] (REQUEST)
s 1.012136319 _3_ RTR  --- 0 AODV 48 [0 ffffffff 0 800] ------- [3:255 -1:255 29 0] [0x2 2 1 [10 0] [0 4]] (REQUEST)
s 1.012147777 _14_ RTR  --- 0 AODV 48 [0 ffffffff d 800] ------- [14:255 -1:255 28 0] [0x2 3 1 [16 0] [6 4]] (REQUEST)
s 1.012224085 _4_ RTR  --- 0 AODV 48 [0 ffffffff 1 800] ------- [4:255 -1:255 29 0] [0x2 2 1 [11 0] [1 4]] (REQUEST)
s 1.012263364 _6_ RTR  --- 0 AODV 48 [0 ffffffff 1 800] ------- [6:255 -1:255 29 0] [0x2 2 1 [11 0] [1 4]] (REQUEST)
r 1.012524953 _3_ RTR  --- 0 AODV 48 [0 ffffffff 4 800] ------- [4:255 -1:255 29 0] [0x2 2 1 [16 0] [6 4]] (REQUEST)
r 1.012524953 _5_ RTR  --- 0 AODV 48 [0 ffffffff 4 800] ------- [4:255 -1:255 29 0] [0x2 2 1 [16 0] [6 4]] (REQUEST)
r 1.012525071 _2_ RTR  --- 0 AODV 48 [0 ffffffff 4 800] ------- [4:255 -1:255 29 0] [0x2 2 1 [16 0] [6 4]] (REQUEST)
r 1.012525071 _6_ RTR  --- 0 AODV 48 [0 ffffffff 4 800] ------- [4:255 -1:255 29 0] [0x2 2 1 [16 0] [6 4]] (REQUEST)
r 1.012525189 _1_ RTR  --- 0 AODV 48 [0 ffffffff 4 800] ------- [4:255 -1:255 29 0] [0x2 2 1 [16 0] [6 4]] (REQUEST)
r 1.012525189 _7_ RTR  --- 0 AODV 48 [0 ffffffff 4 800] ------- [4:255 -1:255 29 0] [0x2 2 1 [16 0] [6 4]] (REQUEST)
r 1.012525307 _0_ RTR  --- 0 AODV 48 [0 ffffffff 4 800] ------- [4:255 -1:255 29 0] [0x2 2 1 [16 0] [6 4]] (REQUEST)
r 1.012525307 _8_ RTR  --- 0 AODV 48 [0 ffffffff 4 800] ------- [4:255 -1:255 29 0] [0x2 2 1 [16 0] [6 4]] (REQUEST)
r 1.012525425 _9_ RTR  --- 0 AODV 48 [0 ffffffff 4 800] ------- [4:255 -1:255 29 0] [0x2 2 1 [16 0] [6 4]] (REQUEST)
r 1.012525542 _10_ RTR  --- 0 AODV 48 [0 ffffffff 4 800] ------- [4:255 -1:255 29 0] [0x2 2 1 [16 0] [6 4]] (REQUEST)
r 1.012525660 _11_ RTR  --- 0 AODV 48 [0 ffffffff 4 800] ------- [4:255 -1:255 29 0] [0x2 2 1 [16 0] [6 4]] (REQUEST)
s 1.012812417 _5_ RTR  --- 0 AODV 48 [0 ffffffff 1 800] ------- [5:255 -1:255 29 0] [0x2 2 1 [11 0] [1 4]] (REQUEST)
s 1.012913668 _1_ RTR  --- 0 AODV 48 [0 ffffffff 0 800] ------- [1:255 -1:255 29 0] [0x2 2 1 [10 0] [0 4]] (REQUEST)
s 1.013034914 _10_ RTR  --- 0 AODV 48 [0 ffffffff 6 800] ------- [10:255 -1:255 29 0] [0x2 2 1 [16 0] [6 4]] (REQUEST)
s 1.013299143 _3_ RTR  --- 0 AODV 48 [0 ffffffff 8 800] ------- [3:255 -1:255 29 0] [0x2 2 1 [18 0] [8 4]] (REQUEST)
s 1.013436918 _12_ RTR  --- 0 AODV 48 [0 ffffffff 7 800] ------- [12:255 -1:255 28 0] [0x2 3 1 [11 0] [1 4]] (REQUEST)
r 1.013443071 _4_ RTR  --- 0 AODV 48 [0 ffffffff 5 800] ------- [5:255 -1:255 29 0] [0x2 2 1 [16 0] [6 4]] (REQUEST)
r 1.013443071 _6_ RTR  --- 0 AODV 48 [0 ffffffff 5 800] ------- [5:255 -1:255 29 0] [0x2 2 1 [16 0] [6 4]] (REQUEST)
r 1.013443189 _3_ RTR  --- 0 AODV 48 [0 ffffffff 5 800] ------- [5:255 -1:255 29 0] [0x2 2 1 [16 0] [6 4]] (REQUEST)
r 1.013443189 _7_ RTR  --- 0 AODV 48 [0 ffffffff 5 800] ------- [5:255 -1:255 29 0] [0x2 2 1 [16 0] [6 4]] (REQUEST)
r 1.013443307 _2_ RTR  --- 0 AODV 48 [0 ffffffff 5 800] ------- [5:255 -1:255 29 0] [0x2 2 1 [16 0] [6 4]] (REQUEST)
r 1.013443425 _1_ RTR  --- 0 AODV 48 [0 ffffffff 5 800] ------- [5:255 -1:255 29 0] [0x2 2 1 [16 0] [6 4]] (REQUEST)
r 1.013443542 _0_ RTR  --- 0 AODV 48 [0 ffffffff 5 800] ------- [5:255 -1:255 29 0] [0x2 2 1 [16 0] [6 4]] (REQUEST)
s 1.014384402 _18_ RTR  --- 0 AODV 48 [0 ffffffff d 800] ------- [18:255 -1:255 28 0] [0x2 3 1 [16 0] [6 4]] (REQUEST)
r 1.014401071 _4_ RTR  --- 0 AODV 48 [0 ffffffff 5 800] ------- [5:255 -1:255 29 0] [0x2 2 1 [11 0] [1 4]] (REQUEST)
r 1.014401071 _6_ RTR  --- 0 AODV 48 [0 ffffffff 5 800] ------- [5:255 -1:255 29 0] [0x2 2 1 [11 0] [1 4]] (REQUEST)
r 1.014401189 _3_ RTR  --- 0 AODV 48 [0 ffffffff 5 800] ------- [5:255 -1:255 29 0] [0x2 2 1 [11 0] [1 4]] (REQUEST)
r 1.014401189 _7_ RTR  --- 0 AODV 48 [0 ffffffff 5 800] ------- [5:255 -1:255 29 0] [0x2 2 1 [11 0] [1 4]] (REQUEST)
r 1.014401307 _2_ RTR  --- 0 AODV 48 [0 ffffffff 5 800] ------- [5:255 -1:255 29 0] [0x2 2 1 [11 0] [1 4]] (REQUEST)
r 1.014401307 _8_ RTR  --- 0 AODV 48 [0 ffffffff 5 800] ------- [5:255 -1:255 29 0] [0x2 2 1 [11 0] [1 4]] (REQUEST)
r 1.014401425 _1_ RTR  --- 0 AODV 48 [0 ffffffff 5 800] ------- [5:255 -1:255 29 0] [0x2 2 1 [11 0] [1 4]] (REQUEST)
r 1.014401425 _9_ RTR  --- 0 AODV 48 [0 ffffffff 5 800] ------- [5:255 -1:255 29 0] [0x2 2 1 [11 0] [1 4]] (REQUEST)
r 1.014401542 _0_ RTR  --- 0 AODV 48 [0 ffffffff 5 800] ------- [5:255 -1:255 29 0] [0x2 2 1 [11 0] [1 4]] (REQUEST)
r 1.014401542 _10_ RTR  --- 0 AODV 48 [0 ffffffff 5 800] ------- [5:255 -1:255 29 0] [0x2 2 1 [11 0] [1 4]] (REQUEST)
r 1.014401660 _11_ RTR  --- 0 AODV 48 [0 ffffffff 5 800] ------- [5:255 -1:255 29 0] [0x2 2 1 [11 0] [1 4]] (REQUEST)
r 1.014401778 _12_ RTR  --- 0 AODV 48 [0 ffffffff 5 800] ------- [5:255 -1:255 29 0] [0x2 2 1 [11 0] [1 4]] (REQUEST)
s 1.014636489 _6_ RTR  --- 0 AODV 48 [0 ffffffff 8 800] ------- [6:255 -1:255 29 0] [0x2 2 1 [18 0] [8 4]] (REQUEST)
s 1.014711786 _15_ RTR  --- 0 AODV 48 [0 ffffffff d 800] ------- [15:255 -1:255 28 0] [0x2 3 1 [16 0] [6 4]] (REQUEST)
s 1.014736708 _9_ RTR  --- 0 AODV 48 [0 ffffffff 7 800] ------- [9:255 -1:255 28 0] [0x2 3 1 [11 0] [1 4]] (REQUEST)
s 1.014804066 _5_ RTR  --- 0 AODV 48 [0 ffffffff 8 800] ------- [5:255 -1:255 29 0] [0x2 2 1 [18 0] [8 4]] (REQUEST)
s 1.014947249 _5_ RTR  --- 0 AODV 48 [0 ffffffff 0 800] ------- [5:255 -1:255 29 0] [0x2 2 1 [10 0] [0 4]] (REQUEST)
s 1.015238955 _9_ RTR  --- 0 AODV 48 [0 ffffffff 8 800] ------- [9:255 -1:255 29 0] [0x2 2 1 [18 0] [8 4]] (REQUEST)
r 1.015299778 _10_ RTR  --- 0 AODV 48 [0 ffffffff b 800] ------- [11:255 -1:255 29 0] [0x2 2 1 [16 0] [6 4]] (REQUEST)
r 1.015299778 _12_ RTR  --- 0 AODV 48 [0 ffffffff b 800] ------- [11:255 -1:255 29 0] [0x2 2 1 [16 0] [6 4]] (REQUEST)
r 1.015299896 _9_ RTR  --- 0 AODV 48 [0 ffffffff b 800] ------- [11:255 -1:255 29 0] [0x2 2 1 [16 0] [6 4]] (REQUEST)
r 1.015299896 _13_ RTR  --- 0 AODV 48 [0 ffffffff b 800] ------- [11:255 -1:255 29 0] [0x2 2 1 [16 0] [6 4]] (REQUEST)
r 1.015300014 _8_ RTR  --- 0 AODV 48 [0 ffffffff b 800] ------- [11:255 -1:255 29 0] [0x2 2 1 [16 0] [6 4]] (REQUEST)
r 1.015300014 _14_ RTR  --- 0 AODV 48 [0 ffffffff b 800] ------- [11:255 -1:255 29 0] [0x2 2 1 [16 0] [6 4]] (REQUEST)
r 1.015300132 _7_ RTR  --- 0 AODV 48 [0 ffffffff b 800] ------- [11:255 -1:255 29 0] [0x2 2 1 [16 0] [6 4]] (REQUEST)
r 1.015300132 _15_ RTR  --- 0 AODV 48 [0 ffffffff b 800] ------- [11:255 -1:255 29 0] [0x2 2 1 [16 0] [6 4]] (REQUEST)
r 1.015300250 _6_ RTR  --- 0 AODV 48 [0 ffffffff b 800] ------- [11:255 -1:255 29 0] [0x2 2 1 [16 0] [6 4]] (REQUEST)
r 1.015300250 _16_ RTR  --- 0 AODV 48 [0 ffffffff b 800] ------- [11:255 -1:255 29 0] [0x2 2 1 [16 0] [6 4]] (REQUEST)
r 1.015300367 _5_ RTR  --- 0 AODV 48 [0 ffffffff b 800] ------- [11:255 -1:255 29 0] [0x2 2 1 [16 0] [6 4]] (REQUEST)
r 1.015300367 _17_ RTR  --- 0 AODV 48 [0 ffffffff b 800] ------- [11:255 -1:255 29 0] [0x2 2 1 [16 0] [6 4]] (REQUEST)
r 1.015300485 _4_ RTR  --- 0 AODV 48 [0 ffffffff b 800] ------- [11:255 -1:255 29 0] [0x2 2 1 [16 0] [6 4]] (REQUEST)
r 1.015300485 _18_ RTR  --- 0 AODV 48 [0 ffffffff b 800] ------- [11:255 -1:255 29 0] [0x2 2 1 [16 0] [6 4]] (REQUEST)
s 1.016109476 _17_ RTR  --- 0 AODV 48 [0 ffffffff d 800] ------- [17:255 -1:255 28 0] [0x2 3 1 [16 0] [6 4]] (REQUEST)
r 1.016217896 _11_ RTR  --- 0 AODV 48 [0 ffffffff c 800] ------- [12:255 -1:255 29 0] [0x2 2 1 [16 0] [6 4]] (REQUEST)
r 1.016217896 _13_ RTR  --- 0 AODV 48 [0 ffffffff c 800] ------- [12:255 -1:255 29 0] [0x2 2 1 [16 0] [6 4]] (REQUEST)
r 1.016218014 _10_ RTR  --- 0 AODV 48 [0 ffffffff c 800] ------- [12:255 -1:255 29 0] [0x2 2 1 [16 0] [6 4]] (REQUEST)
r 1.016218014 _14_ RTR  --- 0 AODV 48 [0 ffffffff c 800] ------- [12:255 -1:255 29 0] [0x2 2 1 [16 0] [6 4]] (REQUEST)
r 1.016218132 _9_ RTR  --- 0 AODV 48 [0 ffffffff c 800] ------- [12:255 -1:255 29 0] [0x2 2 1 [16 0] [6 4]] (REQUEST)
r 1.016218132 _15_ RTR  --- 0 AODV 48 [0 ffffffff c 800] ------- [12:255 -1:255 29 0] [0x2 2 1 [16 0] [6 4]] (REQUEST)
r 1.016218250 _8_ RTR  --- 0 AODV 48 [0 ffffffff c 800] ------- [12:255 -1:255 29 0] [0x2 2 1 [16 0] [6 4]] (REQUEST)
r 1.016218250 _16_ RTR  --- 0 AODV 48 [0 ffffffff c 800] ------- [12:255 -1:255 29 0] [0x2 2 1 [16 0] [6 4]] (REQUEST)
r 1.016218367 _7_ RTR  --- 0 AODV 48 [0 ffffffff c 800] ------- [12:255 -1:255 29 0] [0x2 2 1 [16 0] [6 4]] (REQUEST)
r 1.016218367 _17_ RTR  --- 0 AODV 48 [0 ffffffff c 800] ------- [12:255 -1:255 29 0] [0x2 2 1 [16 0] [6 4]] (REQUEST)
r 1.016218485 _6_ RTR  --- 0 AODV 48 [0 ffffffff c 800] ------- [12:255 -1:255 29 0] [0x2 2 1 [16 0] [6 4]] (REQUEST)
r 1.016218485 _18_ RTR  --- 0 AODV 48 [0 ffffffff c 800] ------- [12:255 -1:255 29 0] [0x2 2 1 [16 0] [6 4]] (REQUEST)
r 1.016218603 _5_ RTR  --- 0 AODV 48 [0 ffffffff c 800] ------- [12:255 -1:255 29 0] [0x2 2 1 [16 0] [6 4]] (REQUEST)
r 1.016218603 _19_ RTR  --- 0 AODV 48 [0 ffffffff c 800] ------- [12:255 -1:255 29 0] [0x2 2 1 [16 0] [6 4]] (REQUEST)
s 1.016794658 _15_ RTR  --- 0 AODV 48 [0 ffffffff 8 800] ------- [15:255 -1:255 29 0] [0x2 2 1 [18 0] [8 4]] (REQUEST)
r 1.017136485 _16_ RTR  --- 0 AODV 48 [0 ffffffff 11 800] ------- [17:255 -1:255 28 0] [0x2 3 1 [16 0] [6 4]] (REQUEST)
r 1.017136485 _18_ RTR  --- 0 AODV 48 [0 ffffffff 11 800] ------- [17:255 -1:255 28 0] [0x2 3 1 [16 0] [6 4]] (REQUEST)
r 1.017136603 _15_ RTR  --- 0 AODV 48 [0 ffffffff 11 800] ------- [17:255 -1:255 28 0] [0x2 3 1 [16 0] [6 4]] (REQUEST)
r 1.017136603 _19_ RTR  --- 0 AODV 48 [0 ffffffff 11 800] ------- [17:255 -1:255 28 0] [0x2 3 1 [16 0] [6 4]] (REQUEST)
r 1.017136721 _14_ RTR  --- 0 AODV 48 [0 ffffffff 11 800] ------- [17:255 -1:255 28 0] [0x2 3 1 [16 0] [6 4]] (REQUEST)
r 1.017136839 _13_ RTR  --- 0 AODV 48 [0 ffffffff 11 800] ------- [17:255 -1:255 28 0] [0x2 3 1 [16 0] [6 4]] (REQUEST)
r 1.017136957 _12_ RTR  --- 0 AODV 48 [0 ffffffff 11 800] ------- [17:255 -1:255 28 0] [0x2 3 1 [16 0] [6 4]] (REQUEST)
r 1.017137075 _11_ RTR  --- 0 AODV 48 [0 ffffffff 11 800] ------- [17:255 -1:255 28 0] [0x2 3 1 [16 0] [6 4]] (REQUEST)
s 1.017142936 _10_ RTR  --- 0 AODV 48 [0 ffffffff 9 800] ------- [10:255 -1:255 29 0] [0x2 2 1 [19 0] [9 4]] (REQUEST)
r 1.017581310 _1_ RTR  --- 0 AODV 48 [0 ffffffff 0 800] ------- [0:255 -1:255 29 0] [0x2 2 1 [11 0] [1 4]] (REQUEST)
s 1.017740637 _14_ RTR  --- 0 AODV 48 [0 ffffffff 8 800] ------- [14:255 -1:255 29 0] [0x2 2 1 [18 0] [8 4]] (REQUEST)
r 1.018214721 _18_ RTR  --- 0 AODV 48 [0 ffffffff 13 800] ------- [19:255 -1:255 28 0] [0x2 3 1 [16 0] [6 4]] (REQUEST)
r 1.018214839 _17_ RTR  --- 0 AODV 48 [0 ffffffff 13 800] ------- [19:255 -1:255 28 0] [0x2 3 1 [16 0] [6 4]] (REQUEST)
r 1.018214957 _16_ RTR  --- 0 AODV 48 [0 ffffffff 13 800] ------- [19:255 -1:255 28 0] [0x2 3 1 [16 0] [6 4]] (REQUEST)
r 1.018215075 _15_ RTR  --- 0 AODV 48 [0 ffffffff 13 800] ------- [19:255 -1:255 28 0] [0x2 3 1 [16 0] [6 4]] (REQUEST)
r 1.018215192 _14_ RTR  --- 0 AODV 48 [0 ffffffff 13 800] ------- [19:255 -1:255 28 0] [0x2 3 1 [16 0] [6 4]] (REQUEST)
r 1.018215310 _13_ RTR  --- 0 AODV 48 [0 ffffffff 13 800] ------- [19:255 -1:255 28 0] [0x2 3 1 [16 0] [6 4]] (REQUEST)
r 1.018499310 _1_ RTR  --- 0 AODV 48 [0 ffffffff 0 800] ------- [0:255 -1:255 29 0] [0x2 2 1 [12 0] [2 4]] (REQUEST)