s 1.000000000 _37_ AGT  --- 0 tcp 40 [0 0 0 0] ------- [37:0 27:0 32 0] [0 0] 0 0
r 1.000000000 _37_ RTR  --- 0 tcp 40 [0 0 0 0] ------- [37:0 27:0 32 0] [0 0] 0 0
s 1.000000000 _37_ AGT  --- 1 tcp 40 [0 0 0 0] ------- [37:1 87:0 32 0] [0 0] 0 0
r 1.000000000 _37_ RTR  --- 1 tcp 40 [0 0 0 0] ------- [37:1 87:0 32 0] [0 0] 0 0
s 1.000000000 _37_ AGT  --- 2 tcp 40 [0 0 0 0] ------- [37:2 64:0 32 0] [0 0] 0 0
r 1.000000000 _37_ RTR  --- 2 tcp 40 [0 0 0 0] ------- [37:2 64:0 32 0] [0 0] 0 0
s 1.000000000 _37_ AGT  --- 3 tcp 40 [0 0 0 0] ------- [37:3 7:0 32 0] [0 0] 0 0
r 1.000000000 _37_ RTR  --- 3 tcp 40 [0 0 0 0] ------- [37:3 7:0 32 0] [0 0] 0 0
s 1.000000000 _37_ AGT  --- 4 tcp 40 [0 0 0 0] ------- [37:4 79:0 32 0] [0 0] 0 0
r 1.000000000 _37_ RTR  --- 4 tcp 40 [0 0 0 0] ------- [37:4 79:0 32 0] [0 0] 0 0
s 1.000000000 _37_ AGT  --- 5 tcp 40 [0 0 0 0] ------- [37:5 59:0 32 0] [0 0] 0 0
r 1.000000000 _37_ RTR  --- 5 tcp 40 [0 0 0 0] ------- [37:5 59:0 32 0] [0 0] 0 0
s 1.000000000 _37_ AGT  --- 6 tcp 40 [0 0 0 0] ------- [37:6 39:0 32 0] [0 0] 0 0
r 1.000000000 _37_ RTR  --- 6 tcp 40 [0 0 0 0] ------- [37:6 39:0 32 0] [0 0] 0 0
s 1.000000000 _37_ AGT  --- 7 tcp 40 [0 0 0 0] ------- [37:7 50:0 32 0] [0 0] 0 0
r 1.000000000 _37_ RTR  --- 7 tcp 40 [0 0 0 0] ------- [37:7 50:0 32 0] [0 0] 0 0
s 1.000000000 _37_ AGT  --- 8 tcp 40 [0 0 0 0] ------- [37:8 24:0 32 0] [0 0] 0 0
r 1.000000000 _37_ RTR  --- 8 tcp 40 [0 0 0 0] ------- [37:8 24:0 32 0] [0 0] 0 0
s 1.000000000 _37_ AGT  --- 9 tcp 40 [0 0 0 0] ------- [37:9 76:0 32 0] [0 0] 0 0
r 1.000000000 _37_ RTR  --- 9 tcp 40 [0 0 0 0] ------- [37:9 76:0 32 0] [0 0] 0 0
s 1.000000000 _37_ AGT  --- 10 tcp 40 [0 0 0 0] ------- [37:10 21:0 32 0] [0 0] 0 0
r 1.000000000 _37_ RTR  --- 10 tcp 40 [0 0 0 0] ------- [37:10 21:0 32 0] [0 0] 0 0
s 1.000000000 _37_ AGT  --- 11 tcp 40 [0 0 0 0] ------- [37:11 76:1 32 0] [0 0] 0 0
r 1.000000000 _37_ RTR  --- 11 tcp 40 [0 0 0 0] ------- [37:11 76:1 32 0] [0 0] 0 0
s 1.000000000 _37_ AGT  --- 12 tcp 40 [0 0 0 0] ------- [37:12 20:0 32 0] [0 0] 0 0
r 1.000000000 _37_ RTR  --- 12 tcp 40 [0 0 0 0] ------- [37:12 20:0 32 0] [0 0] 0 0
s 1.000000000 _37_ AGT  --- 13 tcp 40 [0 0 0 0] ------- [37:13 28:0 32 0] [0 0] 0 0
r 1.000000000 _37_ RTR  --- 13 tcp 40 [0 0 0 0] ------- [37:13 28:0 32 0] [0 0] 0 0
s 1.000000000 _37_ AGT  --- 14 tcp 40 [0 0 0 0] ------- [37:14 22:0 32 0] [0 0] 0 0
r 1.000000000 _37_ RTR  --- 14 tcp 40 [0 0 0 0] ------- [37:14 22:0 32 0] [0 0] 0 0
s 1.000000000 _37_ AGT  --- 15 tcp 40 [0 0 0 0] ------- [37:15 47:0 32 0] [0 0] 0 0
r 1.000000000 _37_ RTR  --- 15 tcp 40 [0 0 0 0] ------- [37:15 47:0 32 0] [0 0] 0 0
s 1.000000000 _37_ AGT  --- 16 tcp 40 [0 0 0 0] ------- [37:16 14:0 32 0] [0 0] 0 0
r 1.000000000 _37_ RTR  --- 16 tcp 40 [0 0 0 0] ------- [37:16 14:0 32 0] [0 0] 0 0
s 1.000000000 _37_ AGT  --- 17 tcp 40 [0 0 0 0] ------- [37:17 14:1 32 0] [0 0] 0 0
r 1.000000000 _37_ RTR  --- 17 tcp 40 [0 0 0 0] ------- [37:17 14:1 32 0] [0 0] 0 0
s 1.000000000 _37_ AGT  --- 18 tcp 40 [0 0 0 0] ------- [37:18 62:0 32 0] [0 0] 0 0
r 1.000000000 _37_ RTR  --- 18 tcp 40 [0 0 0 0] ------- [37:18 62:0 32 0] [0 0] 0 0
s 1.000000000 _37_ AGT  --- 19 tcp 40 [0 0 0 0] ------- [37:19 44:0 32 0] [0 0] 0 0
r 1.000000000 _37_ RTR  --- 19 tcp 40 [0 0 0 0] ------- [37:19 44:0 32 0] [0 0] 0 0
s 1.000000000 _37_ RTR  --- 0 AODV 48 [0 0 0 0] ------- [37:255 -1:255 30 0] [0x2 1 1 [27 0] [37 4]] (REQUEST)
s 1.000000000 _37_ RTR  --- 0 AODV 48 [0 0 0 0] ------- [37:255 -1:255 30 0] [0x2 1 2 [87 0] [37 6]] (REQUEST)
s 1.000000000 _37_ RTR  --- 0 AODV 48 [0 0 0 0] ------- [37:255 -1:255 30 0] [0x2 1 3 [64 0] [37 8]] (REQUEST)
s 1.000000000 _37_ RTR  --- 0 AODV 48 [0 0 0 0] ------- [37:255 -1:255 30 0] [0x2 1 4 [7 0] [37 10]] (REQUEST)
s 1.000000000 _37_ RTR  --- 0 AODV 48 [0 0 0 0] ------- [37:255 -1:255 30 0] [0x2 1 5 [79 0] [37 12]] (REQUEST)
s 1.000000000 _37_ RTR  --- 0 AODV 48 [0 0 0 0] ------- [37:255 -1:255 30 0] [0x2 1 6 [59 0] [37 14]] (REQUEST)
s 1.000000000 _37_ RTR  --- 0 AODV 48 [0 0 0 0] ------- [37:255 -1:255 30 0] [0x2 1 7 [39 0] [37 16]] (REQUEST)
s 1.000000000 _37_ RTR  --- 0 AODV 48 [0 0 0 0] ------- [37:255 -1:255 30 0] [0x2 1 8 [50 0] [37 18]] (REQUEST)
s 1.000000000 _37_ RTR  --- 0 AODV 48 [0 0 0 0] ------- [37:255 -1:255 30 0] [0x2 1 9 [24 0] [37 20]] (REQUEST)
s 1.000000000 _37_ RTR  --- 0 AODV 48 [0 0 0 0] ------- [37:255 -1:255 30 0] [0x2 1 10 [76 0] [37 22]] (REQUEST)
s 1.000000000 _37_ RTR  --- 0 AODV 48 [0 0 0 0] ------- [37:255 -1:255 30 0] [0x2 1 11 [21 0] [37 24]] (REQUEST)
s 1.000000000 _37_ RTR  --- 0 AODV 48 [0 0 0 0] ------- [37:255 -1:255 30 0] [0x2 1 12 [20 0] [37 26]] (REQUEST)
s 1.000000000 _37_ RTR  --- 0 AODV 48 [0 0 0 0] ------- [37:255 -1:255 30 0] [0x2 1 13 [28 0] [37 28]] (REQUEST)
s 1.000000000 _37_ RTR  --- 0 AODV 48 [0 0 0 0] ------- [37:255 -1:255 30 0] [0x2 1 14 [22 0] [37 30]] (REQUEST)
s 1.000000000 _37_ RTR  --- 0 AODV 48 [0 0 0 0] ------- [37:255 -1:255 30 0] [0x2 1 15 [47 0] [37 32]] (REQUEST)
s 1.000000000 _37_ RTR  --- 0 AODV 48 [0 0 0 0] ------- [37:255 -1:255 30 0] [0x2 1 16 [14 0] [37 34]] (REQUEST)
s 1.000000000 _37_ RTR  --- 0 AODV 48 [0 0 0 0] ------- [37:255 -1:255 30 0] [0x2 1 17 [62 0] [37 36]] (REQUEST)
s 1.000000000 _37_ RTR  --- 0 AODV 48 [0 0 0 0] ------- [37:255 -1:255 30 0] [0x2 1 18 [44 0] [37 38]] (REQUEST)
r 1.005202117 _43_ RTR  --- 0 AODV 48 [0 ffffffff 25 800] ------- [37:255 -1:255 30 0] [0x2 1 1 [27 0] [37 4]] (REQUEST)
r 1.005202127 _47_ RTR  --- 0 AODV 48 [0 ffffffff 25 800] ------- [37:255 -1:255 30 0] [0x2 1 1 [27 0] [37 4]] (REQUEST)
r 1.005202145 _66_ RTR  --- 0 AODV 48 [0 ffffffff 25 800] ------- [37:255 -1:255 30 0] [0x2 1 1 [27 0] [37 4]] (REQUEST)
r 1.005202149 _90_ RTR  --- 0 AODV 48 [0 ffffffff 25 800] ------- [37:255 -1:255 30 0] [0x2 1 1 [27 0] [37 4]] (REQUEST)
r 1.005202230 _28_ RTR  --- 0 AODV 48 [0 ffffffff 25 800] ------- [37:255 -1:255 30 0] [0x2 1 1 [27 0] [37 4]] (REQUEST)
r 1.005202292 _15_ RTR  --- 0 AODV 48 [0 ffffffff 25 800] ------- [37:255 -1:255 30 0] [0x2 1 1 [27 0] [37 4]] (REQUEST)
r 1.005202327 _79_ RTR  --- 0 AODV 48 [0 ffffffff 25 800] ------- [37:255 -1:255 30 0] [0x2 1 1 [27 0] [37 4]] (REQUEST)
r 1.005202331 _8_ RTR  --- 0 AODV 48 [0 ffffffff 25 800] ------- [37:255 -1:255 30 0] [0x2 1 1 [27 0] [37 4]] (REQUEST)
r 1.005202341 _59_ RTR  --- 0 AODV 48 [0 ffffffff 25 800] ------- [37:255 -1:255 30 0] [0x2 1 1 [27 0] [37 4]] (REQUEST)
r 1.005202357 _95_ RTR  --- 0 AODV 48 [0 ffffffff 25 800] ------- [37:255 -1:255 30 0] [0x2 1 1 [27 0] [37 4]] (REQUEST)
r 1.005202362 _33_ RTR  --- 0 AODV 48 [0 ffffffff 25 800] ------- [37:255 -1:255 30 0] [0x2 1 1 [27 0] [37 4]] (REQUEST)
r 1.005202386 _94_ RTR  --- 0 AODV 48 [0 ffffffff 25 800] ------- [37:255 -1:255 30 0] [0x2 1 1 [27 0] [37 4]] (REQUEST)
r 1.005202425 _84_ RTR  --- 0 AODV 48 [0 ffffffff 25 800] ------- [37:255 -1:255 30 0] [0x2 1 1 [27 0] [37 4]] (REQUEST)
r 1.005202434 _2_ RTR  --- 0 AODV 48 [0 ffffffff 25 800] ------- [37:255 -1:255 30 0] [0x2 1 1 [27 0] [37 4]] (REQUEST)
r 1.005202447 _96_ RTR  --- 0 AODV 48 [0 ffffffff 25 800] ------- [37:255 -1:255 30 0] [0x2 1 1 [27 0] [37 4]] (REQUEST)
r 1.005202452 _48_ RTR  --- 0 AODV 48 [0 ffffffff 25 800] ------- [37:255 -1:255 30 0] [0x2 1 1 [27 0] [37 4]] (REQUEST)
r 1.005202501 _34_ RTR  --- 0 AODV 48 [0 ffffffff 25 800] ------- [37:255 -1:255 30 0] [0x2 1 1 [27 0] [37 4]] (REQUEST)
r 1.005202522 _71_ RTR  --- 0 AODV 48 [0 ffffffff 25 800] ------- [37:255 -1:255 30 0] [0x2 1 1 [27 0] [37 4]] (REQUEST)
r 1.005202523 _40_ RTR  --- 0 AODV 48 [0 ffffffff 25 800] ------- [37:255 -1:255 30 0] [0x2 1 1 [27 0] [37 4]] (REQUEST)
r 1.005202537 _77_ RTR  --- 0 AODV 48 [0 ffffffff 25 800] ------- [37:255 -1:255 30 0] [0x2 1 1 [27 0] [37 4]] (REQUEST)
r 1.005202548 _75_ RTR  --- 0 AODV 48 [0 ffffffff 25 800] ------- [37:255 -1:255 30 0] [0x2 1 1 [27 0] [37 4]] (REQUEST)
r 1.005202550 _92_ RTR  --- 0 AODV 48 [0 ffffffff 25 800] ------- [37:255 -1:255 30 0] [0x2 1 1 [27 0] [37 4]] (REQUEST)
r 1.005202560 _13_ RTR  --- 0 AODV 48 [0 ffffffff 25 800] ------- [37:255 -1:255 30 0] [0x2 1 1 [27 0] [37 4]] (REQUEST)
r 1.005202560 _32_ RTR  --- 0 AODV 48 [0 ffffffff 25 800] ------- [37:255 -1:255 30 0] [0x2 1 1 [27 0] [37 4]] (REQUEST)
r 1.005202567 _91_ RTR  --- 0 AODV 48 [0 ffffffff 25 800] ------- [37:255 -1:255 30 0] [0x2 1 1 [27 0] [37 4]] (REQUEST)
r 1.005202593 _7_ RTR  --- 0 AODV 48 [0 ffffffff 25 800] ------- [37:255 -1:255 30 0] [0x2 1 1 [27 0] [37 4]] (REQUEST)
r 1.005202602 _51_ RTR  --- 0 AODV 48 [0 ffffffff 25 800] ------- [37:255 -1:255 30 0] [0x2 1 1 [27 0] [37 4]] (REQUEST)
r 1.005202605 _20_ RTR  --- 0 AODV 48 [0 ffffffff 25 800] ------- [37:255 -1:255 30 0] [0x2 1 1 [27 0] [37 4]] (REQUEST)
r 1.005202611 _30_ RTR  --- 0 AODV 48 [0 ffffffff 25 800] ------- [37:255 -1:255 30 0] [0x2 1 1 [27 0] [37 4]] (REQUEST)
r 1.005202646 _87_ RTR  --- 0 AODV 48 [0 ffffffff 25 800] ------- [37:255 -1:255 30 0] [0x2 1 1 [27 0] [37 4]] (REQUEST)
r 1.005202652 _0_ RTR  --- 0 AODV 48 [0 ffffffff 25 800] ------- [37:255 -1:255 30 0] [0x2 1 1 [27 0] [37 4]] (REQUEST)
r 1.005202659 _35_ RTR  --- 0 AODV 48 [0 ffffffff 25 800] ------- [37:255 -1:255 30 0] [0x2 1 1 [27 0] [37 4]] (REQUEST)
r 1.005202665 _18_ RTR  --- 0 AODV 48 [0 ffffffff 25 800] ------- [37:255 -1:255 30 0] [0x2 1 1 [27 0] [37 4]] (REQUEST)
r 1.005202682 _42_ RTR  --- 0 AODV 48 [0 ffffffff 25 800] ------- [37:255 -1:255 30 0] [0x2 1 1 [27 0] [37 4]] (REQUEST)
r 1.005202683 _9_ RTR  --- 0 AODV 48 [0 ffffffff 25 800] ------- [37:255 -1:255 30 0] [0x2 1 1 [27 0] [37 4]] (REQUEST)
r 1.005202689 _93_ RTR  --- 0 AODV 48 [0 ffffffff 25 800] ------- [37:255 -1:255 30 0] [0x2 1 1 [27 0] [37 4]] (REQUEST)
r 1.005202715 _22_ RTR  --- 0 AODV 48 [0 ffffffff 25 800] ------- [37:255 -1:255 30 0] [0x2 1 1 [27 0] [37 4]] (REQUEST)
r 1.005202756 _44_ RTR  --- 0 AODV 48 [0 ffffffff 25 800] ------- [37:255 -1:255 30 0] [0x2 1 1 [27 0] [37 4]] (REQUEST)
r 1.005202823 _45_ RTR  --- 0 AODV 48 [0 ffffffff 25 800] ------- [37:255 -1:255 30 0] [0x2 1 1 [27 0] [37 4]] (REQUEST)
s 1.005755859 _15_ RTR  --- 0 AODV 48 [0 ffffffff 25 800] ------- [15:255 -1:255 29 0] [0x2 2 1 [27 0] [37 4]] (REQUEST)
s 1.005853699 _13_ RTR  --- 0 AODV 48 [0 ffffffff 25 800] ------- [13:255 -1:255 29 0] [0x2 2 1 [27 0] [37 4]] (REQUEST)
s 1.005910889 _44_ RTR  --- 0 AODV 48 [0 ffffffff 25 800] ------- [44:255 -1:255 29 0] [0x2 2 1 [27 0] [37 4]] (REQUEST)
s 1.006506291 _28_ RTR  --- 0 AODV 48 [0 ffffffff 25 800] ------- [28:255 -1:255 29 0] [0x2 2 1 [27 0] [37 4]] (REQUEST)
s 1.006699121 _47_ RTR  --- 0 AODV 48 [0 ffffffff 25 800] ------- [47:255 -1:255 29 0] [0x2 2 1 [27 0] [37 4]] (REQUEST)
s 1.007690398 _30_ RTR  --- 0 AODV 48 [0 ffffffff 25 800] ------- [30:255 -1:255 29 0] [0x2 2 1 [27 0] [37 4]] (REQUEST)
s 1.007888602 _45_ RTR  --- 0 AODV 48 [0 ffffffff 25 800] ------- [45:255 -1:255 29 0] [0x2 2 1 [27 0] [37 4]] (REQUEST)
s 1.007888858 _92_ RTR  --- 0 AODV 48 [0 ffffffff 25 800] ------- [92:255 -1:255 29 0] [0x2 2 1 [27 0] [37 4]] (REQUEST)
r 1.008114117 _43_ RTR  --- 0 AODV 48 [0 ffffffff 25 800] ------- [37:255 -1:255 30 0] [0x2 1 18 [44 0] [37 38]] (REQUEST)
r 1.008114127 _47_ RTR  --- 0 AODV 48 [0 ffffffff 25 800] ------- [37:255 -1:255 30 0] [0x2 1 18 [44 0] [37 38]] (REQUEST)
r 1.008114145 _66_ RTR  --- 0 AODV 48 [0 ffffffff 25 800] ------- [37:255 -1:255 30 0] [0x2 1 18 [44 0] [37 38]] (REQUEST)
r 1.008114149 _90_ RTR  --- 0 AODV 48 [0 ffffffff 25 800] ------- [37:255 -1:255 30 0] [0x2 1 18 [44 0] [37 38]] (REQUEST)
r 1.008114230 _28_ RTR  --- 0 AODV 48 [0 ffffffff 25 800] ------- [37:255 -1:255 30 0] [0x2 1 18 [44 0] [37 38]] (REQUEST)
r 1.008114292 _15_ RTR  --- 0 AODV 48 [0 ffffffff 25 800] ------- [37:255 -1:255 30 0] [0x2 1 18 [44 0] [37 38]] (REQUEST)
r 1.008114327 _79_ RTR  --- 0 AODV 48 [0 ffffffff 25 800] ------- [37:255 -1:255 30 0] [0x2 1 18 [44 0] [37 38]] (REQUEST)
r 1.008114331 _8_ RTR  --- 0 AODV 48 [0 ffffffff 25 800] ------- [37:255 -1:255 30 0] [0x2 1 18 [44 0] [37 38]] (REQUEST)
r 1.008114341 _59_ RTR  --- 0 AODV 48 [0 ffffffff 25 800] ------- [37:255 -1:255 30 0] [0x2 1 18 [44 0] [37 38]] (REQUEST)
r 1.008114357 _95_ RTR  --- 0 AODV 48 [0 ffffffff 25 800] ------- [37:255 -1:255 30 0] [0x2 1 18 [44 0] [37 38]] (REQUEST)
r 1.008114362 _33_ RTR  --- 0 AODV 48 [0 ffffffff 25 800] ------- [37:255 -1:255 30 0] [0x2 1 18 [44 0] [37 38]] (REQUEST)
r 1.008114386 _94_ RTR  --- 0 AODV 48 [0 ffffffff 25 800] ------- [37:255 -1:255 30 0] [0x2 1 18 [44 0] [37 38]] (REQUEST)
r 1.008114425 _84_ RTR  --- 0 AODV 48 [0 ffffffff 25 800] ------- [37:255 -1:255 30 0] [0x2 1 18 [44 0] [37 38]] (REQUEST)
r 1.008114434 _2_ RTR  --- 0 AODV 48 [0 ffffffff 25 800] ------- [37:255 -1:255 30 0] [0x2 1 18 [44 0] [37 38]] (REQUEST)
r 1.008114447 _96_ RTR  --- 0 AODV 48 [0 ffffffff 25 800] ------- [37:255 -1:255 30 0] [0x2 1 18 [44 0] [37 38]] (REQUEST)
r 1.008114452 _48_ RTR  --- 0 AODV 48 [0 ffffffff 25 800] ------- [37:255 -1:255 30 0] [0x2 1 18 [44 0] [37 38]] (REQUEST)
r 1.008114501 _34_ RTR  --- 0 AODV 48 [0 ffffffff 25 800] ------- [37:255 -1:255 30 0] [0x2 1 18 [44 0] [37 38]] (REQUEST)
r 1.008114522 _71_ RTR  --- 0 AODV 48 [0 ffffffff 25 800] ------- [37:255 -1:255 30 0] [0x2 1 18 [44 0] [37 38]] (REQUEST)
r 1.008114523 _40_ RTR  --- 0 AODV 48 [0 ffffffff 25 800] ------- [37:255 -1:255 30 0] [0x2 1 18 [44 0] [37 38]] (REQUEST)
r 1.008114537 _77_ RTR  --- 0 AODV 48 [0 ffffffff 25 800] ------- [37:255 -1:255 30 0] [0x2 1 18 [44 0] [37 38]] (REQUEST)
r 1.008114548 _75_ RTR  --- 0 AODV 48 [0 ffffffff 25 800] ------- [37:255 -1:255 30 0] [0x2 1 18 [44 0] [37 38]] (REQUEST)
r 1.008114550 _92_ RTR  --- 0 AODV 48 [0 ffffffff 25 800] ------- [37:255 -1:255 30 0] [0x2 1 18 [44 0] [37 38]] (REQUEST)
r 1.008114560 _13_ RTR  --- 0 AODV 48 [0 ffffffff 25 800] ------- [37:255 -1:255 30 0] [0x2 1 18 [44 0] [37 38]] (REQUEST)
r 1.008114560 _32_ RTR  --- 0 AODV 48 [0 ffffffff 25 800] ------- [37:255 -1:255 30 0] [0x2 1 18 [44 0] [37 38]] (REQUEST)
r 1.008114567 _91_ RTR  --- 0 AODV 48 [0 ffffffff 25 800] ------- [37:255 -1:255 30 0] [0x2 1 18 [44 0] [37 38]] (REQUEST)
r 1.008114593 _7_ RTR  --- 0 AODV 48 [0 ffffffff 25 800] ------- [37:255 -1:255 30 0] [0x2 1 18 [44 0] [37 38]] (REQUEST)
r 1.008114602 _51_ RTR  --- 0 AODV 48 [0 ffffffff 25 800] ------- [37:255 -1:255 30 0] [0x2 1 18 [44 0] [37 38]] (REQUEST)
r 1.008114605 _20_ RTR  --- 0 AODV 48 [0 ffffffff 25 800] ------- [37:255 -1:255 30 0] [0x2 1 18 [44 0] [37 38]] (REQUEST)
r 1.008114611 _30_ RTR  --- 0 AODV 48 [0 ffffffff 25 800] ------- [37:255 -1:255 30 0] [0x2 1 18 [44 0] [37 38]] (REQUEST)
r 1.008114646 _87_ RTR  --- 0 AODV 48 [0 ffffffff 25 800] ------- [37:255 -1:255 30 0] [0x2 1 18 [44 0] [37 38]] (REQUEST)
r 1.008114652 _0_ RTR  --- 0 AODV 48 [0 ffffffff 25 800] ------- [37:255 -1:255 30 0] [0x2 1 18 [44 0] [37 38]] (REQUEST)
r 1.008114659 _35_ RTR  --- 0 AODV 48 [0 ffffffff 25 800] ------- [37:255 -1:255 30 0] [0x2 1 18 [44 0] [37 38]] (REQUEST)
r 1.008114665 _18_ RTR  --- 0 AODV 48 [0 ffffffff 25 800] ------- [37:255 -1:255 30 0] [0x2 1 18 [44 0] [37 38]] (REQUEST)
r 1.008114682 _42_ RTR  --- 0 AODV 48 [0 ffffffff 25 800] ------- [37:255 -1:255 30 0] [0x2 1 18 [44 0] [37 38]] (REQUEST)
r 1.008114683 _9_ RTR  --- 0 AODV 48 [0 ffffffff 25 800] ------- [37:255 -1:255 30 0] [0x2 1 18 [44 0] [37 38]] (REQUEST)
r 1.008114689 _93_ RTR  --- 0 AODV 48 [0 ffffffff 25 800] ------- [37:255 -1:255 30 0] [0x2 1 18 [44 0] [37 38]] (REQUEST)
r 1.008114715 _22_ RTR  --- 0 AODV 48 [0 ffffffff 25 800] ------- [37:255 -1:255 30 0] [0x2 1 18 [44 0] [37 38]] (REQUEST)
r 1.008114756 _44_ RTR  --- 0 AODV 48 [0 ffffffff 25 800] ------- [37:255 -1:255 30 0] [0x2 1 18 [44 0] [37 38]] (REQUEST)
s 1.008114756 _44_ RTR  --- 0 AODV 44 [0 0 0 0] ------- [44:255 37:255 30 37] [0x4 1 [44 4] 10.000000] (REPLY)
r 1.008114823 _45_ RTR  --- 0 AODV 48 [0 ffffffff 25 800] ------- [37:255 -1:255 30 0] [0x2 1 18 [44 0] [37 38]] (REQUEST)
s 1.008256222 _8_ RTR  --- 0 AODV 48 [0 ffffffff 25 800] ------- [8:255 -1:255 29 0] [0x2 2 1 [27 0] [37 4]] (REQUEST)
s 1.008330516 _32_ RTR  --- 0 AODV 48 [0 ffffffff 25 800] ------- [32:255 -1:255 29 0] [0x2 2 1 [27 0] [37 4]] (REQUEST)
s 1.008492699 _18_ RTR  --- 0 AODV 48 [0 ffffffff 25 800] ------- [18:255 -1:255 29 0] [0x2 2 1 [27 0] [37 4]] (REQUEST)
s 1.008508895 _59_ RTR  --- 0 AODV 48 [0 ffffffff 25 800] ------- [59:255 -1:255 29 0] [0x2 2 1 [27 0] [37 4]] (REQUEST)
s 1.008589008 _40_ RTR  --- 0 AODV 48 [0 ffffffff 25 800] ------- [40:255 -1:255 29 0] [0x2 2 18 [44 0] [37 38]] (REQUEST)
s 1.008868573 _75_ RTR  --- 0 AODV 48 [0 ffffffff 25 800] ------- [75:255 -1:255 29 0] [0x2 2 18 [44 0] [37 38]] (REQUEST)
s 1.008879483 _34_ RTR  --- 0 AODV 48 [0 ffffffff 25 800] ------- [34:255 -1:255 29 0] [0x2 2 18 [44 0] [37 38]] (REQUEST)
s 1.008940720 _33_ RTR  --- 0 AODV 48 [0 ffffffff 25 800] ------- [33:255 -1:255 29 0] [0x2 2 1 [27 0] [37 4]] (REQUEST)
s 1.008954681 _95_ RTR  --- 0 AODV 48 [0 ffffffff 25 800] ------- [95:255 -1:255 29 0] [0x2 2 1 [27 0] [37 4]] (REQUEST)
s 1.008964921 _2_ RTR  --- 0 AODV 48 [0 ffffffff 25 800] ------- [2:255 -1:255 29 0] [0x2 2 18 [44 0] [37 38]] (REQUEST)
s 1.008969181 _45_ RTR  --- 0 AODV 48 [0 ffffffff 25 800] ------- [45:255 -1:255 29 0] [0x2 2 18 [44 0] [37 38]] (REQUEST)
s 1.009095581 _84_ RTR  --- 0 AODV 48 [0 ffffffff 25 800] ------- [84:255 -1:255 29 0] [0x2 2 18 [44 0] [37 38]] (REQUEST)
s 1.009404571 _79_ RTR  --- 0 AODV 48 [0 ffffffff 25 800] ------- [79:255 -1:255 29 0] [0x2 2 18 [44 0] [37 38]] (REQUEST)
s 1.009435795 _18_ RTR  --- 0 AODV 48 [0 ffffffff 25 800] ------- [18:255 -1:255 29 0] [0x2 2 18 [44 0] [37 38]] (REQUEST)
s 1.009481339 _84_ RTR  --- 0 AODV 48 [0 ffffffff 25 800] ------- [84:255 -1:255 29 0] [0x2 2 1 [27 0] [37 4]] (REQUEST)
s 1.009649560 _66_ RTR  --- 0 AODV 48 [0 ffffffff 25 800] ------- [66:255 -1:255 29 0] [0x2 2 1 [27 0] [37 4]] (REQUEST)
s 1.009682279 _93_ RTR  --- 0 AODV 48 [0 ffffffff 25 800] ------- [93:255 -1:255 29 0] [0x2 2 1 [27 0] [37 4]] (REQUEST)
s 1.009815262 _34_ RTR  --- 0 AODV 48 [0 ffffffff 25 800] ------- [34:255 -1:255 29 0] [0x2 2 1 [27 0] [37 4]] (REQUEST)
s 1.009932854 _7_ RTR  --- 0 AODV 48 [0 ffffffff 25 800] ------- [7:255 -1:255 29 0] [0x2 2 1 [27 0] [37 4]] (REQUEST)
s 1.010150629 _51_ RTR  --- 0 AODV 48 [0 ffffffff 25 800] ------- [51:255 -1:255 29 0] [0x2 2 18 [44 0] [37 38]] (REQUEST)
s 1.010232372 _20_ RTR  --- 0 AODV 48 [0 ffffffff 25 800] ------- [20:255 -1:255 29 0] [0x2 2 1 [27 0] [37 4]] (REQUEST)
s 1.010312293 _42_ RTR  --- 0 AODV 48 [0 ffffffff 25 800] ------- [42:255 -1:255 29 0] [0x2 2 1 [27 0] [37 4]] (REQUEST)
s 1.010366246 _79_ RTR  --- 0 AODV 48 [0 ffffffff 25 800] ------- [79:255 -1:255 29 0] [0x2 2 1 [27 0] [37 4]] (REQUEST)
s 1.010403535 _71_ RTR  --- 0 AODV 48 [0 ffffffff 25 800] ------- [71:255 -1:255 29 0] [0x2 2 1 [27 0] [37 4]] (REQUEST)
s 1.010638233 _2_ RTR  --- 0 AODV 48 [0 ffffffff 25 800] ------- [2:255 -1:255 29 0] [0x2 2 1 [27 0] [37 4]] (REQUEST)
s 1.010691898 _33_ RTR  --- 0 AODV 48 [0 ffffffff 25 800] ------- [33:255 -1:255 29 0] [0x2 2 18 [44 0] [37 38]] (REQUEST)
r 1.010972526 _32_ RTR  --- 0 AODV 48 [0 ffffffff 1e 800] ------- [30:255 -1:255 29 0] [0x2 2 1 [27 0] [37 4]] (REQUEST)
r 1.010972548 _22_ RTR  --- 0 AODV 48 [0 ffffffff 1e 800] ------- [30:255 -1:255 29 0] [0x2 2 1 [27 0] [37 4]] (REQUEST)
r 1.010972599 _35_ RTR  --- 0 AODV 48 [0 ffffffff 1e 800] ------- [30:255 -1:255 29 0] [0x2 2 1 [27 0] [37 4]] (REQUEST)
r 1.010972647 _13_ RTR  --- 0 AODV 48 [0 ffffffff 1e 800] ------- [30:255 -1:255 29 0] [0x2 2 1 [27 0] [37 4]] (REQUEST)
r 1.010972655 _17_ RTR  --- 0 AODV 48 [0 ffffffff 1e 800] ------- [30:255 -1:255 29 0] [0x2 2 1 [27 0] [37 4]] (REQUEST)
r 1.010972659 _33_ RTR  --- 0 AODV 48 [0 ffffffff 1e 800] ------- [30:255 -1:255 29 0] [0x2 2 1 [27 0] [37 4]] (REQUEST)
r 1.010972702 _42_ RTR  --- 0 AODV 48 [0 ffffffff 1e 800] ------- [30:255 -1:255 29 0] [0x2 2 1 [27 0] [37 4]] (REQUEST)
r 1.010972725 _92_ RTR  --- 0 AODV 48 [0 ffffffff 1e 800] ------- [30:255 -1:255 29 0] [0x2 2 1 [27 0] [37 4]] (REQUEST)
r 1.010972744 _91_ RTR  --- 0 AODV 48 [0 ffffffff 1e 800] ------- [30:255 -1:255 29 0] [0x2 2 1 [27 0] [37 4]] (REQUEST)
r 1.010972755 _96_ RTR  --- 0 AODV 48 [0 ffffffff 1e 800] ------- [30:255 -1:255 29 0] [0x2 2 1 [27 0] [37 4]] (REQUEST)
r 1.010972756 _86_ RTR  --- 0 AODV 48 [0 ffffffff 1e 800] ------- [30:255 -1:255 29 0] [0x2 2 1 [27 0] [37 4]] (REQUEST)
r 1.010972762 _94_ RTR  --- 0 AODV 48 [0 ffffffff 1e 800] ------- [30:255 -1:255 29 0] [0x2 2 1 [27 0] [37 4]] (REQUEST)
r 1.010972766 _20_ RTR  --- 0 AODV 48 [0 ffffffff 1e 800] ------- [30:255 -1:255 29 0] [0x2 2 1 [27 0] [37 4]] (REQUEST)
r 1.010972767 _62_ RTR  --- 0 AODV 48 [0 ffffffff 1e 800] ------- [30:255 -1:255 29 0] [0x2 2 1 [27 0] [37 4]] (REQUEST)
r 1.010972782 _18_ RTR  --- 0 AODV 48 [0 ffffffff 1e 800] ------- [30:255 -1:255 29 0] [0x2 2 1 [27 0] [37 4]] (REQUEST)
r 1.010972797 _72_ RTR  --- 0 AODV 48 [0 ffffffff 1e 800] ------- [30:255 -1:255 29 0] [0x2 2 1 [27 0] [37 4]] (REQUEST)
r 1.010972803 _50_ RTR  --- 0 AODV 48 [0 ffffffff 1e 800] ------- [30:255 -1:255 29 0] [0x2 2 1 [27 0] [37 4]] (REQUEST)
r 1.010972805 _67_ RTR  --- 0 AODV 48 [0 ffffffff 1e 800] ------- [30:255 -1:255 29 0] [0x2 2 1 [27 0] [37 4]] (REQUEST)
r 1.010972822 _82_ RTR  --- 0 AODV 48 [0 ffffffff 1e 800] ------- [30:255 -1:255 29 0] [0x2 2 1 [27 0] [37 4]] (REQUEST)
r 1.010972844 _93_ RTR  --- 0 AODV 48 [0 ffffffff 1e 800] ------- [30:255 -1:255 29 0] [0x2 2 1 [27 0] [37 4]] (REQUEST)
r 1.010972860 _77_ RTR  --- 0 AODV 48 [0 ffffffff 1e 800] ------- [30:255 -1:255 29 0] [0x2 2 1 [27 0] [37 4]] (REQUEST)
r 1.010972869 _45_ RTR  --- 0 AODV 48 [0 ffffffff 1e 800] ------- [30:255 -1:255 29 0] [0x2 2 1 [27 0] [37 4]] (REQUEST)
r 1.010972914 _85_ RTR  --- 0 AODV 48 [0 ffffffff 1e 800] ------- [30:255 -1:255 29 0] [0x2 2 1 [27 0] [37 4]] (REQUEST)
r 1.010972916 _59_ RTR  --- 0 AODV 48 [0 ffffffff 1e 800] ------- [30:255 -1:255 29 0] [0x2 2 1 [27 0] [37 4]] (REQUEST)
r 1.010972916 _43_ RTR  --- 0 AODV 48 [0 ffffffff 1e 800] ------- [30:255 -1:255 29 0] [0x2 2 1 [27 0] [37 4]] (REQUEST)
r 1.010972916 _48_ RTR  --- 0 AODV 48 [0 ffffffff 1e 800] ------- [30:255 -1:255 29 0] [0x2 2 1 [27 0] [37 4]] (REQUEST)
r 1.010972932 _11_ RTR  --- 0 AODV 48 [0 ffffffff 1e 800] ------- [30:255 -1:255 29 0] [0x2 2 1 [27 0] [37 4]] (REQUEST)
r 1.010972937 _0_ RTR  --- 0 AODV 48 [0 ffffffff 1e 800] ------- [30:255 -1:255 29 0] [0x2 2 1 [27 0] [37 4]] (REQUEST)
r 1.010972955 _60_ RTR  --- 0 AODV 48 [0 ffffffff 1e 800] ------- [30:255 -1:255 29 0] [0x2 2 1 [27 0] [37 4]] (REQUEST)
r 1.010972959 _51_ RTR  --- 0 AODV 48 [0 ffffffff 1e 800] ------- [30:255 -1:255 29 0] [0x2 2 1 [27 0] [37 4]] (REQUEST)
r 1.010972960 _95_ RTR  --- 0 AODV 48 [0 ffffffff 1e 800] ------- [30:255 -1:255 29 0] [0x2 2 1 [27 0] [37 4]] (REQUEST)
r 1.010972962 _53_ RTR  --- 0 AODV 48 [0 ffffffff 1e 800] ------- [30:255 -1:255 29 0] [0x2 2 1 [27 0] [37 4]] (REQUEST)
r 1.010972963 _34_ RTR  --- 0 AODV 48 [0 ffffffff 1e 800] ------- [30:255 -1:255 29 0] [0x2 2 1 [27 0] [37 4]] (REQUEST)
r 1.010972965 _56_ RTR  --- 0 AODV 48 [0 ffffffff 1e 800] ------- [30:255 -1:255 29 0] [0x2 2 1 [27 0] [37 4]] (REQUEST)
r 1.010972972 _19_ RTR  --- 0 AODV 48 [0 ffffffff 1e 800] ------- [30:255 -1:255 29 0] [0x2 2 1 [27 0] [37 4]] (REQUEST)
r 1.010972978 _16_ RTR  --- 0 AODV 48 [0 ffffffff 1e 800] ------- [30:255 -1:255 29 0] [0x2 2 1 [27 0] [37 4]] (REQUEST)
r 1.010972991 _25_ RTR  --- 0 AODV 48 [0 ffffffff 1e 800] ------- [30:255 -1:255 29 0] [0x2 2 1 [27 0] [37 4]] (REQUEST)
r 1.010972999 _88_ RTR  --- 0 AODV 48 [0 ffffffff 1e 800] ------- [30:255 -1:255 29 0] [0x2 2 1 [27 0] [37 4]] (REQUEST)
r 1.010973006 _87_ RTR  --- 0 AODV 48 [0 ffffffff 1e 800] ------- [30:255 -1:255 29 0] [0x2 2 1 [27 0] [37 4]] (REQUEST)
r 1.010973008 _90_ RTR  --- 0 AODV 48 [0 ffffffff 1e 800] ------- [30:255 -1:255 29 0] [0x2 2 1 [27 0] [37 4]] (REQUEST)
r 1.010973010 _37_ RTR  --- 0 AODV 48 [0 ffffffff 1e 800] ------- [30:255 -1:255 29 0] [0x2 2 1 [27 0] [37 4]] (REQUEST)
r 1.010973020 _97_ RTR  --- 0 AODV 48 [0 ffffffff 1e 800] ------- [30:255 -1:255 29 0] [0x2 2 1 [27 0] [37 4]] (REQUEST)
r 1.010973032 _55_ RTR  --- 0 AODV 48 [0 ffffffff 1e 800] ------- [30:255 -1:255 29 0] [0x2 2 1 [27 0] [37 4]] (REQUEST)
r 1.010973037 _1_ RTR  --- 0 AODV 48 [0 ffffffff 1e 800] ------- [30:255 -1:255 29 0] [0x2 2 1 [27 0] [37 4]] (REQUEST)
r 1.010973060 _28_ RTR  --- 0 AODV 48 [0 ffffffff 1e 800] ------- [30:255 -1:255 29 0] [0x2 2 1 [27 0] [37 4]] (REQUEST)
r 1.010973060 _79_ RTR  --- 0 AODV 48 [0 ffffffff 1e 800] ------- [30:255 -1:255 29 0] [0x2 2 1 [27 0] [37 4]] (REQUEST)
r 1.010973072 _47_ RTR  --- 0 AODV 48 [0 ffffffff 1e 800] ------- [30:255 -1:255 29 0] [0x2 2 1 [27 0] [37 4]] (REQUEST)
r 1.010973076 _2_ RTR  --- 0 AODV 48 [0 ffffffff 1e 800] ------- [30:255 -1:255 29 0] [0x2 2 1 [27 0] [37 4]] (REQUEST)
r 1.010973092 _5_ RTR  --- 0 AODV 48 [0 ffffffff 1e 800] ------- [30:255 -1:255 29 0] [0x2 2 1 [27 0] [37 4]] (REQUEST)
r 1.010973101 _64_ RTR  --- 0 AODV 48 [0 ffffffff 1e 800] ------- [30:255 -1:255 29 0] [0x2 2 1 [27 0] [37 4]] (REQUEST)
r 1.010973110 _73_ RTR  --- 0 AODV 48 [0 ffffffff 1e 800] ------- [30:255 -1:255 29 0] [0x2 2 1 [27 0] [37 4]] (REQUEST)
r 1.010973124 _49_ RTR  --- 0 AODV 48 [0 ffffffff 1e 800] ------- [30:255 -1:255 29 0] [0x2 2 1 [27 0] [37 4]] (REQUEST)
r 1.010973126 _8_ RTR  --- 0 AODV 48 [0 ffffffff 1e 800] ------- [30:255 -1:255 29 0] [0x2 2 1 [27 0] [37 4]] (REQUEST)
r 1.010973129 _21_ RTR  --- 0 AODV 48 [0 ffffffff 1e 800] ------- [30:255 -1:255 29 0] [0x2 2 1 [27 0] [37 4]] (REQUEST)
r 1.010973137 _7_ RTR  --- 0 AODV 48 [0 ffffffff 1e 800] ------- [30:255 -1:255 29 0] [0x2 2 1 [27 0] [37 4]] (REQUEST)
r 1.010973152 _66_ RTR  --- 0 AODV 48 [0 ffffffff 1e 800] ------- [30:255 -1:255 29 0] [0x2 2 1 [27 0] [37 4]] (REQUEST)
r 1.010973155 _80_ RTR  --- 0 AODV 48 [0 ffffffff 1e 800] ------- [30:255 -1:255 29 0] [0x2 2 1 [27 0] [37 4]] (REQUEST)
r 1.010973165 _99_ RTR  --- 0 AODV 48 [0 ffffffff 1e 800] ------- [30:255 -1:255 29 0] [0x2 2 1 [27 0] [37 4]] (REQUEST)
r 1.010973180 _41_ RTR  --- 0 AODV 48 [0 ffffffff 1e 800] ------- [30:255 -1:255 29 0] [0x2 2 1 [27 0] [37 4]] (REQUEST)
r 1.010973189 _54_ RTR  --- 0 AODV 48 [0 ffffffff 1e 800] ------- [30:255 -1:255 29 0] [0x2 2 1 [27 0] [37 4]] (REQUEST)
r 1.010973196 _71_ RTR  --- 0 AODV 48 [0 ffffffff 1e 800] ------- [30:255 -1:255 29 0] [0x2 2 1 [27 0] [37 4]] (REQUEST)
r 1.010973197 _76_ RTR  --- 0 AODV 48 [0 ffffffff 1e 800] ------- [30:255 -1:255 29 0] [0x2 2 1 [27 0] [37 4]] (REQUEST)
r 1.010973198 _29_ RTR  --- 0 AODV 48 [0 ffffffff 1e 800] ------- [30:255 -1:255 29 0] [0x2 2 1 [27 0] [37 4]] (REQUEST)
r 1.010973200 _40_ RTR  --- 0 AODV 48 [0 ffffffff 1e 800] ------- [30:255 -1:255 29 0] [0x2 2 1 [27 0] [37 4]] (REQUEST)
r 1.010973209 _65_ RTR  --- 0 AODV 48 [0 ffffffff 1e 800] ------- [30:255 -1:255 29 0] [0x2 2 1 [27 0] [37 4]] (REQUEST)
r 1.010973215 _39_ RTR  --- 0 AODV 48 [0 ffffffff 1e 800] ------- [30:255 -1:255 29 0] [0x2 2 1 [27 0] [37 4]] (REQUEST)
r 1.010973228 _52_ RTR  --- 0 AODV 48 [0 ffffffff 1e 800] ------- [30:255 -1:255 29 0] [0x2 2 1 [27 0] [37 4]] (REQUEST)
s 1.011009081 _77_ RTR  --- 0 AODV 48 [0 ffffffff 25 800] ------- [77:255 -1:255 29 0] [0x2 2 1 [27 0] [37 4]] (REQUEST)
s 1.011082803 _1_ RTR  --- 0 AODV 48 [0 ffffffff 1e 800] ------- [1:255 -1:255 28 0] [0x2 3 1 [27 0] [37 4]] (REQUEST)
s 1.011149013 _15_ RTR  --- 0 AODV 48 [0 ffffffff 25 800] ------- [15:255 -1:255 29 0] [0x2 2 18 [44 0] [37 38]] (REQUEST)
s 1.011150962 _13_ RTR  --- 0 AODV 48 [0 ffffffff 25 800] ------- [13:255 -1:255 29 0] [0x2 2 18 [44 0] [37 38]] (REQUEST)
s 1.011326878 _8_ RTR  --- 0 AODV 48 [0 ffffffff 25 800] ------- [8:255 -1:255 29 0] [0x2 2 18 [44 0] [37 38]] (REQUEST)
s 1.011396650 _60_ RTR  --- 0 AODV 48 [0 ffffffff 1e 800] ------- [60:255 -1:255 28 0] [0x2 3 1 [27 0] [37 4]] (REQUEST)
s 1.011518504 _90_ RTR  --- 0 AODV 48 [0 ffffffff 25 800] ------- [90:255 -1:255 29 0] [0x2 2 1 [27 0] [37 4]] (REQUEST)
s 1.011677286 _43_ RTR  --- 0 AODV 48 [0 ffffffff 25 800] ------- [43:255 -1:255 29 0] [0x2 2 1 [27 0] [37 4]] (REQUEST)
s 1.011736388 _30_ RTR  --- 0 AODV 48 [0 ffffffff 25 800] ------- [30:255 -1:255 29 0] [0x2 2 18 [44 0] [37 38]] (REQUEST)
s 1.011836825 _94_ RTR  --- 0 AODV 48 [0 ffffffff 25 800] ------- [94:255 -1:255 29 0] [0x2 2 18 [44 0] [37 38]] (REQUEST)
s 1.012101924 _43_ RTR  --- 0 AODV 48 [0 ffffffff 25 800] ------- [43:255 -1:255 29 0] [0x2 2 18 [44 0] [37 38]] (REQUEST)
s 1.012208323 _32_ RTR  --- 0 AODV 48 [0 ffffffff 25 800] ------- [32:255 -1:255 29 0] [0x2 2 18 [44 0] [37 38]] (REQUEST)
s 1.012213528 _48_ RTR  --- 0 AODV 48 [0 ffffffff 25 800] ------- [48:255 -1:255 29 0] [0x2 2 1 [27 0] [37 4]] (REQUEST)
s 1.012469325 _28_ RTR  --- 0 AODV 48 [0 ffffffff 25 800] ------- [28:255 -1:255 29 0] [0x2 2 18 [44 0] [37 38]] (REQUEST)
s 1.012543342 _71_ RTR  --- 0 AODV 48 [0 ffffffff 25 800] ------- [71:255 -1:255 29 0] [0x2 2 18 [44 0] [37 38]] (REQUEST)
s 1.012719834 _22_ RTR  --- 0 AODV 48 [0 ffffffff 25 800] ------- [22:255 -1:255 29 0] [0x2 2 18 [44 0] [37 38]] (REQUEST)
s 1.012806391 _95_ RTR  --- 0 AODV 48 [0 ffffffff 25 800] ------- [95:255 -1:255 29 0] [0x2 2 18 [44 0] [37 38]] (REQUEST)
s 1.012871612 _96_ RTR  --- 0 AODV 48 [0 ffffffff 25 800] ------- [96:255 -1:255 29 0] [0x2 2 18 [44 0] [37 38]] (REQUEST)
s 1.012889538 _9_ RTR  --- 0 AODV 48 [0 ffffffff 25 800] ------- [9:255 -1:255 29 0] [0x2 2 1 [27 0] [37 4]] (REQUEST)
s 1.012923925 _22_ RTR  --- 0 AODV 48 [0 ffffffff 25 800] ------- [22:255 -1:255 29 0] [0x2 2 1 [27 0] [37 4]] (REQUEST)
s 1.012961549 _48_ RTR  --- 0 AODV 48 [0 ffffffff 25 800] ------- [48:255 -1:255 29 0] [0x2 2 18 [44 0] [37 38]] (REQUEST)
s 1.012971804 _94_ RTR  --- 0 AODV 48 [0 ffffffff 25 800] ------- [94:255 -1:255 29 0] [0x2 2 1 [27 0] [37 4]] (REQUEST)
s 1.013046451 _55_ RTR  --- 0 AODV 48 [0 ffffffff 1e 800] ------- [55:255 -1:255 28 0] [0x2 3 1 [27 0] [37 4]] (REQUEST)