s 1.000000000 _37_ AGT  --- 0 tcp 40 [0 0 0 0] ------- [37:0 25:0 32 0] [0 0] 0 0
r 1.000000000 _37_ RTR  --- 0 tcp 40 [0 0 0 0] ------- [37:0 25:0 32 0] [0 0] 0 0
s 1.000000000 _37_ AGT  --- 1 tcp 40 [0 0 0 0] ------- [37:1 24:0 32 0] [0 0] 0 0
r 1.000000000 _37_ RTR  --- 1 tcp 40 [0 0 0 0] ------- [37:1 24:0 32 0] [0 0] 0 0
s 1.000000000 _37_ AGT  --- 2 tcp 40 [0 0 0 0] ------- [37:2 31:0 32 0] [0 0] 0 0
r 1.000000000 _37_ RTR  --- 2 tcp 40 [0 0 0 0] ------- [37:2 31:0 32 0] [0 0] 0 0
s 1.000000000 _37_ AGT  --- 3 tcp 40 [0 0 0 0] ------- [37:3 9:0 32 0] [0 0] 0 0
r 1.000000000 _37_ RTR  --- 3 tcp 40 [0 0 0 0] ------- [37:3 9:0 32 0] [0 0] 0 0
s 1.000000000 _37_ AGT  --- 4 tcp 40 [0 0 0 0] ------- [37:4 3:0 32 0] [0 0] 0 0
r 1.000000000 _37_ RTR  --- 4 tcp 40 [0 0 0 0] ------- [37:4 3:0 32 0] [0 0] 0 0
s 1.000000000 _37_ AGT  --- 5 tcp 40 [0 0 0 0] ------- [37:5 5:0 32 0] [0 0] 0 0
r 1.000000000 _37_ RTR  --- 5 tcp 40 [0 0 0 0] ------- [37:5 5:0 32 0] [0 0] 0 0
s 1.000000000 _37_ AGT  --- 6 tcp 40 [0 0 0 0] ------- [37:6 26:0 32 0] [0 0] 0 0
r 1.000000000 _37_ RTR  --- 6 tcp 40 [0 0 0 0] ------- [37:6 26:0 32 0] [0 0] 0 0
s 1.000000000 _37_ AGT  --- 7 tcp 40 [0 0 0 0] ------- [37:7 19:0 32 0] [0 0] 0 0
r 1.000000000 _37_ RTR  --- 7 tcp 40 [0 0 0 0] ------- [37:7 19:0 32 0] [0 0] 0 0
s 1.000000000 _37_ AGT  --- 8 tcp 40 [0 0 0 0] ------- [37:8 1:0 32 0] [0 0] 0 0
r 1.000000000 _37_ RTR  --- 8 tcp 40 [0 0 0 0] ------- [37:8 1:0 32 0] [0 0] 0 0
s 1.000000000 _37_ AGT  --- 9 tcp 40 [0 0 0 0] ------- [37:9 19:1 32 0] [0 0] 0 0
r 1.000000000 _37_ RTR  --- 9 tcp 40 [0 0 0 0] ------- [37:9 19:1 32 0] [0 0] 0 0
s 1.000000000 _37_ AGT  --- 10 tcp 40 [0 0 0 0] ------- [37:10 11:0 32 0] [0 0] 0 0
r 1.000000000 _37_ RTR  --- 10 tcp 40 [0 0 0 0] ------- [37:10 11:0 32 0] [0 0] 0 0
s 1.000000000 _37_ AGT  --- 11 tcp 40 [0 0 0 0] ------- [37:11 36:0 32 0] [0 0] 0 0
r 1.000000000 _37_ RTR  --- 11 tcp 40 [0 0 0 0] ------- [37:11 36:0 32 0] [0 0] 0 0
s 1.000000000 _37_ AGT  --- 12 tcp 40 [0 0 0 0] ------- [37:12 24:1 32 0] [0 0] 0 0
r 1.000000000 _37_ RTR  --- 12 tcp 40 [0 0 0 0] ------- [37:12 24:1 32 0] [0 0] 0 0
s 1.000000000 _37_ AGT  --- 13 tcp 40 [0 0 0 0] ------- [37:13 8:0 32 0] [0 0] 0 0
r 1.000000000 _37_ RTR  --- 13 tcp 40 [0 0 0 0] ------- [37:13 8:0 32 0] [0 0] 0 0
s 1.000000000 _37_ AGT  --- 14 tcp 40 [0 0 0 0] ------- [37:14 28:0 32 0] [0 0] 0 0
r 1.000000000 _37_ RTR  --- 14 tcp 40 [0 0 0 0] ------- [37:14 28:0 32 0] [0 0] 0 0
s 1.000000000 _37_ AGT  --- 15 tcp 40 [0 0 0 0] ------- [37:15 27:0 32 0] [0 0] 0 0
r 1.000000000 _37_ RTR  --- 15 tcp 40 [0 0 0 0] ------- [37:15 27:0 32 0] [0 0] 0 0
s 1.000000000 _37_ AGT  --- 16 tcp 40 [0 0 0 0] ------- [37:16 19:2 32 0] [0 0] 0 0
r 1.000000000 _37_ RTR  --- 16 tcp 40 [0 0 0 0] ------- [37:16 19:2 32 0] [0 0] 0 0
s 1.000000000 _37_ AGT  --- 17 tcp 40 [0 0 0 0] ------- [37:17 34:0 32 0] [0 0] 0 0
r 1.000000000 _37_ RTR  --- 17 tcp 40 [0 0 0 0] ------- [37:17 34:0 32 0] [0 0] 0 0
s 1.000000000 _37_ AGT  --- 18 tcp 40 [0 0 0 0] ------- [37:18 21:0 32 0] [0 0] 0 0
r 1.000000000 _37_ RTR  --- 18 tcp 40 [0 0 0 0] ------- [37:18 21:0 32 0] [0 0] 0 0
s 1.000000000 _37_ AGT  --- 19 tcp 40 [0 0 0 0] ------- [37:19 35:0 32 0] [0 0] 0 0
r 1.000000000 _37_ RTR  --- 19 tcp 40 [0 0 0 0] ------- [37:19 35:0 32 0] [0 0] 0 0
s 1.000000000 _37_ RTR  --- 0 AODV 48 [0 0 0 0] ------- [37:255 -1:255 30 0] [0x2 1 1 [25 0] [37 4]] (REQUEST)
s 1.000000000 _37_ RTR  --- 0 AODV 48 [0 0 0 0] ------- [37:255 -1:255 30 0] [0x2 1 2 [24 0] [37 6]] (REQUEST)
s 1.000000000 _37_ RTR  --- 0 AODV 48 [0 0 0 0] ------- [37:255 -1:255 30 0] [0x2 1 3 [31 0] [37 8]] (REQUEST)
s 1.000000000 _37_ RTR  --- 0 AODV 48 [0 0 0 0] ------- [37:255 -1:255 30 0] [0x2 1 4 [9 0] [37 10]] (REQUEST)
s 1.000000000 _37_ RTR  --- 0 AODV 48 [0 0 0 0] ------- [37:255 -1:255 30 0] [0x2 1 5 [3 0] [37 12]] (REQUEST)
s 1.000000000 _37_ RTR  --- 0 AODV 48 [0 0 0 0] ------- [37:255 -1:255 30 0] [0x2 1 6 [5 0] [37 14]] (REQUEST)
s 1.000000000 _37_ RTR  --- 0 AODV 48 [0 0 0 0] ------- [37:255 -1:255 30 0] [0x2 1 7 [26 0] [37 16]] (REQUEST)
s 1.000000000 _37_ RTR  --- 0 AODV 48 [0 0 0 0] ------- [37:255 -1:255 30 0] [0x2 1 8 [19 0] [37 18]] (REQUEST)
s 1.000000000 _37_ RTR  --- 0 AODV 48 [0 0 0 0] ------- [37:255 -1:255 30 0] [0x2 1 9 [1 0] [37 20]] (REQUEST)
s 1.000000000 _37_ RTR  --- 0 AODV 48 [0 0 0 0] ------- [37:255 -1:255 30 0] [0x2 1 10 [11 0] [37 22]] (REQUEST)
s 1.000000000 _37_ RTR  --- 0 AODV 48 [0 0 0 0] ------- [37:255 -1:255 30 0] [0x2 1 11 [36 0] [37 24]] (REQUEST)
s 1.000000000 _37_ RTR  --- 0 AODV 48 [0 0 0 0] ------- [37:255 -1:255 30 0] [0x2 1 12 [8 0] [37 26]] (REQUEST)
s 1.000000000 _37_ RTR  --- 0 AODV 48 [0 0 0 0] ------- [37:255 -1:255 30 0] [0x2 1 13 [28 0] [37 28]] (REQUEST)
s 1.000000000 _37_ RTR  --- 0 AODV 48 [0 0 0 0] ------- [37:255 -1:255 30 0] [0x2 1 14 [27 0] [37 30]] (REQUEST)
s 1.000000000 _37_ RTR  --- 0 AODV 48 [0 0 0 0] ------- [37:255 -1:255 30 0] [0x2 1 15 [34 0] [37 32]] (REQUEST)
s 1.000000000 _37_ RTR  --- 0 AODV 48 [0 0 0 0] ------- [37:255 -1:255 30 0] [0x2 1 16 [21 0] [37 34]] (REQUEST)
s 1.000000000 _37_ RTR  --- 0 AODV 48 [0 0 0 0] ------- [37:255 -1:255 30 0] [0x2 1 17 [35 0] [37 36]] (REQUEST)
r 1.005202061 _14_ RTR  --- 0 AODV 48 [0 ffffffff 25 800] ------- [37:255 -1:255 30 0] [0x2 1 1 [25 0] [37 4]] (REQUEST)
r 1.005202066 _11_ RTR  --- 0 AODV 48 [0 ffffffff 25 800] ------- [37:255 -1:255 30 0] [0x2 1 1 [25 0] [37 4]] (REQUEST)
r 1.005202127 _9_ RTR  --- 0 AODV 48 [0 ffffffff 25 800] ------- [37:255 -1:255 30 0] [0x2 1 1 [25 0] [37 4]] (REQUEST)
r 1.005202143 _39_ RTR  --- 0 AODV 48 [0 ffffffff 25 800] ------- [37:255 -1:255 30 0] [0x2 1 1 [25 0] [37 4]] (REQUEST)
r 1.005202185 _21_ RTR  --- 0 AODV 48 [0 ffffffff 25 800] ------- [37:255 -1:255 30 0] [0x2 1 1 [25 0] [37 4]] (REQUEST)
r 1.005202201 _12_ RTR  --- 0 AODV 48 [0 ffffffff 25 800] ------- [37:255 -1:255 30 0] [0x2 1 1 [25 0] [37 4]] (REQUEST)
r 1.005202211 _8_ RTR  --- 0 AODV 48 [0 ffffffff 25 800] ------- [37:255 -1:255 30 0] [0x2 1 1 [25 0] [37 4]] (REQUEST)
r 1.005202234 _36_ RTR  --- 0 AODV 48 [0 ffffffff 25 800] ------- [37:255 -1:255 30 0] [0x2 1 1 [25 0] [37 4]] (REQUEST)
r 1.005202234 _27_ RTR  --- 0 AODV 48 [0 ffffffff 25 800] ------- [37:255 -1:255 30 0] [0x2 1 1 [25 0] [37 4]] (REQUEST)
r 1.005202254 _24_ RTR  --- 0 AODV 48 [0 ffffffff 25 800] ------- [37:255 -1:255 30 0] [0x2 1 1 [25 0] [37 4]] (REQUEST)
r 1.005202313 _28_ RTR  --- 0 AODV 48 [0 ffffffff 25 800] ------- [37:255 -1:255 30 0] [0x2 1 1 [25 0] [37 4]] (REQUEST)
r 1.005202320 _6_ RTR  --- 0 AODV 48 [0 ffffffff 25 800] ------- [37:255 -1:255 30 0] [0x2 1 1 [25 0] [37 4]] (REQUEST)
r 1.005202326 _15_ RTR  --- 0 AODV 48 [0 ffffffff 25 800] ------- [37:255 -1:255 30 0] [0x2 1 1 [25 0] [37 4]] (REQUEST)
r 1.005202326 _33_ RTR  --- 0 AODV 48 [0 ffffffff 25 800] ------- [37:255 -1:255 30 0] [0x2 1 1 [25 0] [37 4]] (REQUEST)
r 1.005202337 _10_ RTR  --- 0 AODV 48 [0 ffffffff 25 800] ------- [37:255 -1:255 30 0] [0x2 1 1 [25 0] [37 4]] (REQUEST)
r 1.005202397 _3_ RTR  --- 0 AODV 48 [0 ffffffff 25 800] ------- [37:255 -1:255 30 0] [0x2 1 1 [25 0] [37 4]] (REQUEST)
r 1.005202403 _20_ RTR  --- 0 AODV 48 [0 ffffffff 25 800] ------- [37:255 -1:255 30 0] [0x2 1 1 [25 0] [37 4]] (REQUEST)
r 1.005202420 _34_ RTR  --- 0 AODV 48 [0 ffffffff 25 800] ------- [37:255 -1:255 30 0] [0x2 1 1 [25 0] [37 4]] (REQUEST)
r 1.005202423 _13_ RTR  --- 0 AODV 48 [0 ffffffff 25 800] ------- [37:255 -1:255 30 0] [0x2 1 1 [25 0] [37 4]] (REQUEST)
r 1.005202456 _2_ RTR  --- 0 AODV 48 [0 ffffffff 25 800] ------- [37:255 -1:255 30 0] [0x2 1 1 [25 0] [37 4]] (REQUEST)
r 1.005202461 _19_ RTR  --- 0 AODV 48 [0 ffffffff 25 800] ------- [37:255 -1:255 30 0] [0x2 1 1 [25 0] [37 4]] (REQUEST)
r 1.005202486 _23_ RTR  --- 0 AODV 48 [0 ffffffff 25 800] ------- [37:255 -1:255 30 0] [0x2 1 1 [25 0] [37 4]] (REQUEST)
r 1.005202502 _30_ RTR  --- 0 AODV 48 [0 ffffffff 25 800] ------- [37:255 -1:255 30 0] [0x2 1 1 [25 0] [37 4]] (REQUEST)
r 1.005202523 _5_ RTR  --- 0 AODV 48 [0 ffffffff 25 800] ------- [37:255 -1:255 30 0] [0x2 1 1 [25 0] [37 4]] (REQUEST)
r 1.005202534 _22_ RTR  --- 0 AODV 48 [0 ffffffff 25 800] ------- [37:255 -1:255 30 0] [0x2 1 1 [25 0] [37 4]] (REQUEST)
r 1.005202558 _25_ RTR  --- 0 AODV 48 [0 ffffffff 25 800] ------- [37:255 -1:255 30 0] [0x2 1 1 [25 0] [37 4]] (REQUEST)
s 1.005202558 _25_ RTR  --- 0 AODV 44 [0 0 0 0] ------- [25:255 37:255 30 37] [0x4 1 [25 4] 10.000000] (REPLY)
r 1.005202561 _18_ RTR  --- 0 AODV 48 [0 ffffffff 25 800] ------- [37:255 -1:255 30 0] [0x2 1 1 [25 0] [37 4]] (REQUEST)
r 1.005202580 _7_ RTR  --- 0 AODV 48 [0 ffffffff 25 800] ------- [37:255 -1:255 30 0] [0x2 1 1 [25 0] [37 4]] (REQUEST)
r 1.005202582 _32_ RTR  --- 0 AODV 48 [0 ffffffff 25 800] ------- [37:255 -1:255 30 0] [0x2 1 1 [25 0] [37 4]] (REQUEST)
r 1.005202603 _1_ RTR  --- 0 AODV 48 [0 ffffffff 25 800] ------- [37:255 -1:255 30 0] [0x2 1 1 [25 0] [37 4]] (REQUEST)
r 1.005202610 _38_ RTR  --- 0 AODV 48 [0 ffffffff 25 800] ------- [37:255 -1:255 30 0] [0x2 1 1 [25 0] [37 4]] (REQUEST)
r 1.005202619 _31_ RTR  --- 0 AODV 48 [0 ffffffff 25 800] ------- [37:255 -1:255 30 0] [0x2 1 1 [25 0] [37 4]] (REQUEST)
r 1.005202629 _26_ RTR  --- 0 AODV 48 [0 ffffffff 25 800] ------- [37:255 -1:255 30 0] [0x2 1 1 [25 0] [37 4]] (REQUEST)
r 1.005202630 _0_ RTR  --- 0 AODV 48 [0 ffffffff 25 800] ------- [37:255 -1:255 30 0] [0x2 1 1 [25 0] [37 4]] (REQUEST)
r 1.005202646 _35_ RTR  --- 0 AODV 48 [0 ffffffff 25 800] ------- [37:255 -1:255 30 0] [0x2 1 1 [25 0] [37 4]] (REQUEST)
r 1.005202649 _4_ RTR  --- 0 AODV 48 [0 ffffffff 25 800] ------- [37:255 -1:255 30 0] [0x2 1 1 [25 0] [37 4]] (REQUEST)
r 1.005202672 _29_ RTR  --- 0 AODV 48 [0 ffffffff 25 800] ------- [37:255 -1:255 30 0] [0x2 1 1 [25 0] [37 4]] (REQUEST)
r 1.005202711 _17_ RTR  --- 0 AODV 48 [0 ffffffff 25 800] ------- [37:255 -1:255 30 0] [0x2 1 1 [25 0] [37 4]] (REQUEST)
r 1.005202799 _16_ RTR  --- 0 AODV 48 [0 ffffffff 25 800] ------- [37:255 -1:255 30 0] [0x2 1 1 [25 0] [37 4]] (REQUEST)
s 1.005362225 _24_ RTR  --- 0 AODV 48 [0 ffffffff 25 800] ------- [24:255 -1:255 29 0] [0x2 2 1 [25 0] [37 4]] (REQUEST)
s 1.005521542 _9_ RTR  --- 0 AODV 48 [0 ffffffff 25 800] ------- [9:255 -1:255 29 0] [0x2 2 1 [25 0] [37 4]] (REQUEST)
s 1.005597645 _38_ RTR  --- 0 AODV 48 [0 ffffffff 25 800] ------- [38:255 -1:255 29 0] [0x2 2 1 [25 0] [37 4]] (REQUEST)
s 1.005789628 _4_ RTR  --- 0 AODV 48 [0 ffffffff 25 800] ------- [4:255 -1:255 29 0] [0x2 2 1 [25 0] [37 4]] (REQUEST)
s 1.005847470 _7_ RTR  --- 0 AODV 48 [0 ffffffff 25 800] ------- [7:255 -1:255 29 0] [0x2 2 1 [25 0] [37 4]] (REQUEST)
s 1.006394098 _33_ RTR  --- 0 AODV 48 [0 ffffffff 25 800] ------- [33:255 -1:255 29 0] [0x2 2 1 [25 0] [37 4]] (REQUEST)
s 1.006787672 _22_ RTR  --- 0 AODV 48 [0 ffffffff 25 800] ------- [22:255 -1:255 29 0] [0x2 2 1 [25 0] [37 4]] (REQUEST)
s 1.006914256 _11_ RTR  --- 0 AODV 48 [0 ffffffff 25 800] ------- [11:255 -1:255 29 0] [0x2 2 1 [25 0] [37 4]] (REQUEST)
s 1.006969430 _32_ RTR  --- 0 AODV 48 [0 ffffffff 25 800] ------- [32:255 -1:255 29 0] [0x2 2 1 [25 0] [37 4]] (REQUEST)
s 1.007278385 _27_ RTR  --- 0 AODV 48 [0 ffffffff 25 800] ------- [27:255 -1:255 29 0] [0x2 2 1 [25 0] [37 4]] (REQUEST)
s 1.007343917 _3_ RTR  --- 0 AODV 48 [0 ffffffff 25 800] ------- [3:255 -1:255 29 0] [0x2 2 1 [25 0] [37 4]] (REQUEST)
s 1.007470937 _0_ RTR  --- 0 AODV 48 [0 ffffffff 25 800] ------- [0:255 -1:255 29 0] [0x2 2 1 [25 0] [37 4]] (REQUEST)
s 1.007557968 _18_ RTR  --- 0 AODV 48 [0 ffffffff 25 800] ------- [18:255 -1:255 29 0] [0x2 2 1 [25 0] [37 4]] (REQUEST)
r 1.008483610 _21_ RTR  --- 0 AODV 48 [0 ffffffff 9 800] ------- [9:255 -1:255 29 0] [0x2 2 1 [25 0] [37 4]] (REQUEST)
r 1.008483627 _14_ RTR  --- 0 AODV 48 [0 ffffffff 9 800] ------- [9:255 -1:255 29 0] [0x2 2 1 [25 0] [37 4]] (REQUEST)
r 1.008483762 _27_ RTR  --- 0 AODV 48 [0 ffffffff 9 800] ------- [9:255 -1:255 29 0] [0x2 2 1 [25 0] [37 4]] (REQUEST)
r 1.008483782 _28_ RTR  --- 0 AODV 48 [0 ffffffff 9 800] ------- [9:255 -1:255 29 0] [0x2 2 1 [25 0] [37 4]] (REQUEST)
r 1.008483797 _33_ RTR  --- 0 AODV 48 [0 ffffffff 9 800] ------- [9:255 -1:255 29 0] [0x2 2 1 [25 0] [37 4]] (REQUEST)
s 1.008514446 _15_ RTR  --- 0 AODV 48 [0 ffffffff 25 800] ------- [15:255 -1:255 29 0] [0x2 2 1 [25 0] [37 4]] (REQUEST)
s 1.008602286 _29_ RTR  --- 0 AODV 48 [0 ffffffff 25 800] ------- [29:255 -1:255 29 0] [0x2 2 1 [25 0] [37 4]] (REQUEST)
r 1.008644245 _36_ RTR  --- 0 AODV 48 [0 ffffffff 18 800] ------- [24:255 -1:255 29 0] [0x2 2 1 [25 0] [37 4]] (REQUEST)
r 1.008644279 _12_ RTR  --- 0 AODV 48 [0 ffffffff 18 800] ------- [24:255 -1:255 29 0] [0x2 2 1 [25 0] [37 4]] (REQUEST)
s 1.009277214 _13_ RTR  --- 0 AODV 48 [0 ffffffff 25 800] ------- [13:255 -1:255 29 0] [0x2 2 1 [25 0] [37 4]] (REQUEST)
s 1.009431743 _34_ RTR  --- 0 AODV 48 [0 ffffffff 25 800] ------- [34:255 -1:255 29 0] [0x2 2 1 [25 0] [37 4]] (REQUEST)
s 1.009506452 _20_ RTR  --- 0 AODV 48 [0 ffffffff 25 800] ------- [20:255 -1:255 29 0] [0x2 2 1 [25 0] [37 4]] (REQUEST)
s 1.009574542 _6_ RTR  --- 0 AODV 48 [0 ffffffff 25 800] ------- [6:255 -1:255 29 0] [0x2 2 1 [25 0] [37 4]] (REQUEST)
s 1.009601457 _28_ RTR  --- 0 AODV 48 [0 ffffffff 25 800] ------- [28:255 -1:255 29 0] [0x2 2 1 [25 0] [37 4]] (REQUEST)
s 1.009714849 _36_ RTR  --- 0 AODV 48 [0 ffffffff 25 800] ------- [36:255 -1:255 29 0] [0x2 2 1 [25 0] [37 4]] (REQUEST)
s 1.010050202 _19_ RTR  --- 0 AODV 48 [0 ffffffff 25 800] ------- [19:255 -1:255 29 0] [0x2 2 1 [25 0] [37 4]] (REQUEST)
s 1.010409680 _8_ RTR  --- 0 AODV 48 [0 ffffffff 25 800] ------- [8:255 -1:255 29 0] [0x2 2 1 [25 0] [37 4]] (REQUEST)
r 1.010956113 _28_ RTR  --- 0 AODV 48 [0 ffffffff 21 800] ------- [33:255 -1:255 29 0] [0x2 2 1 [25 0] [37 4]] (REQUEST)
r 1.010956169 _3_ RTR  --- 0 AODV 48 [0 ffffffff 21 800] ------- [33:255 -1:255 29 0] [0x2 2 1 [25 0] [37 4]] (REQUEST)
r 1.010956233 _19_ RTR  --- 0 AODV 48 [0 ffffffff 21 800] ------- [33:255 -1:255 29 0] [0x2 2 1 [25 0] [37 4]] (REQUEST)
r 1.010956238 _27_ RTR  --- 0 AODV 48 [0 ffffffff 21 800] ------- [33:255 -1:255 29 0] [0x2 2 1 [25 0] [37 4]] (REQUEST)
r 1.010956241 _6_ RTR  --- 0 AODV 48 [0 ffffffff 21 800] ------- [33:255 -1:255 29 0] [0x2 2 1 [25 0] [37 4]] (REQUEST)
r 1.010956278 _23_ RTR  --- 0 AODV 48 [0 ffffffff 21 800] ------- [33:255 -1:255 29 0] [0x2 2 1 [25 0] [37 4]] (REQUEST)
r 1.010956353 _9_ RTR  --- 0 AODV 48 [0 ffffffff 21 800] ------- [33:255 -1:255 29 0] [0x2 2 1 [25 0] [37 4]] (REQUEST)
r 1.010956364 _14_ RTR  --- 0 AODV 48 [0 ffffffff 21 800] ------- [33:255 -1:255 29 0] [0x2 2 1 [25 0] [37 4]] (REQUEST)
r 1.010956365 _32_ RTR  --- 0 AODV 48 [0 ffffffff 21 800] ------- [33:255 -1:255 29 0] [0x2 2 1 [25 0] [37 4]] (REQUEST)
r 1.010956383 _38_ RTR  --- 0 AODV 48 [0 ffffffff 21 800] ------- [33:255 -1:255 29 0] [0x2 2 1 [25 0] [37 4]] (REQUEST)
r 1.010956388 _13_ RTR  --- 0 AODV 48 [0 ffffffff 21 800] ------- [33:255 -1:255 29 0] [0x2 2 1 [25 0] [37 4]] (REQUEST)
r 1.010956400 _39_ RTR  --- 0 AODV 48 [0 ffffffff 21 800] ------- [33:255 -1:255 29 0] [0x2 2 1 [25 0] [37 4]] (REQUEST)
r 1.010956405 _7_ RTR  --- 0 AODV 48 [0 ffffffff 21 800] ------- [33:255 -1:255 29 0] [0x2 2 1 [25 0] [37 4]] (REQUEST)
r 1.010956424 _37_ RTR  --- 0 AODV 48 [0 ffffffff 21 800] ------- [33:255 -1:255 29 0] [0x2 2 1 [25 0] [37 4]] (REQUEST)
r 1.010956426 _5_ RTR  --- 0 AODV 48 [0 ffffffff 21 800] ------- [33:255 -1:255 29 0] [0x2 2 1 [25 0] [37 4]] (REQUEST)
r 1.010956436 _26_ RTR  --- 0 AODV 48 [0 ffffffff 21 800] ------- [33:255 -1:255 29 0] [0x2 2 1 [25 0] [37 4]] (REQUEST)
r 1.010956448 _29_ RTR  --- 0 AODV 48 [0 ffffffff 21 800] ------- [33:255 -1:255 29 0] [0x2 2 1 [25 0] [37 4]] (REQUEST)
r 1.010956487 _22_ RTR  --- 0 AODV 48 [0 ffffffff 21 800] ------- [33:255 -1:255 29 0] [0x2 2 1 [25 0] [37 4]] (REQUEST)
s 1.010987631 _31_ RTR  --- 0 AODV 48 [0 ffffffff 25 800] ------- [31:255 -1:255 29 0] [0x2 2 1 [25 0] [37 4]] (REQUEST)
r 1.011073038 _25_ RTR  --- 0 AODV 48 [0 ffffffff 0 800] ------- [0:255 -1:255 29 0] [0x2 2 1 [25 0] [37 4]] (REQUEST)
r 1.011073045 _4_ RTR  --- 0 AODV 48 [0 ffffffff 0 800] ------- [0:255 -1:255 29 0] [0x2 2 1 [25 0] [37 4]] (REQUEST)
r 1.011073067 _17_ RTR  --- 0 AODV 48 [0 ffffffff 0 800] ------- [0:255 -1:255 29 0] [0x2 2 1 [25 0] [37 4]] (REQUEST)
s 1.011355751 _21_ RTR  --- 0 AODV 48 [0 ffffffff 25 800] ------- [21:255 -1:255 29 0] [0x2 2 1 [25 0] [37 4]] (REQUEST)
s 1.011431401 _30_ RTR  --- 0 AODV 48 [0 ffffffff 25 800] ------- [30:255 -1:255 29 0] [0x2 2 1 [25 0] [37 4]] (REQUEST)
s 1.011573593 _16_ RTR  --- 0 AODV 48 [0 ffffffff 25 800] ------- [16:255 -1:255 29 0] [0x2 2 1 [25 0] [37 4]] (REQUEST)
s 1.012264711 _26_ RTR  --- 0 AODV 48 [0 ffffffff 25 800] ------- [26:255 -1:255 29 0] [0x2 2 1 [25 0] [37 4]] (REQUEST)
s 1.012558991 _2_ RTR  --- 0 AODV 48 [0 ffffffff 25 800] ------- [2:255 -1:255 29 0] [0x2 2 1 [25 0] [37 4]] (REQUEST)
s 1.012754498 _39_ RTR  --- 0 AODV 48 [0 ffffffff 25 800] ------- [39:255 -1:255 29 0] [0x2 2 1 [25 0] [37 4]] (REQUEST)
s 1.013098484 _12_ RTR  --- 0 AODV 48 [0 ffffffff 25 800] ------- [12:255 -1:255 29 0] [0x2 2 1 [25 0] [37 4]] (REQUEST)
s 1.013143091 _17_ RTR  --- 0 AODV 48 [0 ffffffff 25 800] ------- [17:255 -1:255 29 0] [0x2 2 1 [25 0] [37 4]] (REQUEST)
s 1.013260380 _14_ RTR  --- 0 AODV 48 [0 ffffffff 25 800] ------- [14:255 -1:255 29 0] [0x2 2 1 [25 0] [37 4]] (REQUEST)
r 1.013316869 _24_ RTR  --- 0 AODV 48 [0 ffffffff 24 800] ------- [36:255 -1:255 29 0] [0x2 2 1 [25 0] [37 4]] (REQUEST)
r 1.013316882 _12_ RTR  --- 0 AODV 48 [0 ffffffff 24 800] ------- [36:255 -1:255 29 0] [0x2 2 1 [25 0] [37 4]] (REQUEST)
r 1.013316896 _8_ RTR  --- 0 AODV 48 [0 ffffffff 24 800] ------- [36:255 -1:255 29 0] [0x2 2 1 [25 0] [37 4]] (REQUEST)
r 1.013317029 _11_ RTR  --- 0 AODV 48 [0 ffffffff 24 800] ------- [36:255 -1:255 29 0] [0x2 2 1 [25 0] [37 4]] (REQUEST)
r 1.013317060 _21_ RTR  --- 0 AODV 48 [0 ffffffff 24 800] ------- [36:255 -1:255 29 0] [0x2 2 1 [25 0] [37 4]] (REQUEST)
r 1.013317068 _15_ RTR  --- 0 AODV 48 [0 ffffffff 24 800] ------- [36:255 -1:255 29 0] [0x2 2 1 [25 0] [37 4]] (REQUEST)
r 1.013317081 _9_ RTR  --- 0 AODV 48 [0 ffffffff 24 800] ------- [36:255 -1:255 29 0] [0x2 2 1 [25 0] [37 4]] (REQUEST)
r 1.013317083 _37_ RTR  --- 0 AODV 48 [0 ffffffff 24 800] ------- [36:255 -1:255 29 0] [0x2 2 1 [25 0] [37 4]] (REQUEST)
r 1.013317109 _14_ RTR  --- 0 AODV 48 [0 ffffffff 24 800] ------- [36:255 -1:255 29 0] [0x2 2 1 [25 0] [37 4]] (REQUEST)
r 1.013317123 _20_ RTR  --- 0 AODV 48 [0 ffffffff 24 800] ------- [36:255 -1:255 29 0] [0x2 2 1 [25 0] [37 4]] (REQUEST)
r 1.013317134 _34_ RTR  --- 0 AODV 48 [0 ffffffff 24 800] ------- [36:255 -1:255 29 0] [0x2 2 1 [25 0] [37 4]] (REQUEST)
r 1.013317225 _39_ RTR  --- 0 AODV 48 [0 ffffffff 24 800] ------- [36:255 -1:255 29 0] [0x2 2 1 [25 0] [37 4]] (REQUEST)
r 1.013317230 _10_ RTR  --- 0 AODV 48 [0 ffffffff 24 800] ------- [36:255 -1:255 29 0] [0x2 2 1 [25 0] [37 4]] (REQUEST)
r 1.013317254 _2_ RTR  --- 0 AODV 48 [0 ffffffff 24 800] ------- [36:255 -1:255 29 0] [0x2 2 1 [25 0] [37 4]] (REQUEST)
r 1.013317257 _6_ RTR  --- 0 AODV 48 [0 ffffffff 24 800] ------- [36:255 -1:255 29 0] [0x2 2 1 [25 0] [37 4]] (REQUEST)
r 1.013317290 _27_ RTR  --- 0 AODV 48 [0 ffffffff 24 800] ------- [36:255 -1:255 29 0] [0x2 2 1 [25 0] [37 4]] (REQUEST)
r 1.013317320 _28_ RTR  --- 0 AODV 48 [0 ffffffff 24 800] ------- [36:255 -1:255 29 0] [0x2 2 1 [25 0] [37 4]] (REQUEST)
r 1.013317335 _33_ RTR  --- 0 AODV 48 [0 ffffffff 24 800] ------- [36:255 -1:255 29 0] [0x2 2 1 [25 0] [37 4]] (REQUEST)
r 1.013317382 _25_ RTR  --- 0 AODV 48 [0 ffffffff 24 800] ------- [36:255 -1:255 29 0] [0x2 2 1 [25 0] [37 4]] (REQUEST)
r 1.013317393 _3_ RTR  --- 0 AODV 48 [0 ffffffff 24 800] ------- [36:255 -1:255 29 0] [0x2 2 1 [25 0] [37 4]] (REQUEST)
r 1.013317400 _4_ RTR  --- 0 AODV 48 [0 ffffffff 24 800] ------- [36:255 -1:255 29 0] [0x2 2 1 [25 0] [37 4]] (REQUEST)
r 1.013317420 _0_ RTR  --- 0 AODV 48 [0 ffffffff 24 800] ------- [36:255 -1:255 29 0] [0x2 2 1 [25 0] [37 4]] (REQUEST)
r 1.013317432 _18_ RTR  --- 0 AODV 48 [0 ffffffff 24 800] ------- [36:255 -1:255 29 0] [0x2 2 1 [25 0] [37 4]] (REQUEST)
r 1.013317434 _30_ RTR  --- 0 AODV 48 [0 ffffffff 24 800] ------- [36:255 -1:255 29 0] [0x2 2 1 [25 0] [37 4]] (REQUEST)
r 1.013317447 _23_ RTR  --- 0 AODV 48 [0 ffffffff 24 800] ------- [36:255 -1:255 29 0] [0x2 2 1 [25 0] [37 4]] (REQUEST)
r 1.013317460 _19_ RTR  --- 0 AODV 48 [0 ffffffff 24 800] ------- [36:255 -1:255 29 0] [0x2 2 1 [25 0] [37 4]] (REQUEST)
r 1.013317461 _17_ RTR  --- 0 AODV 48 [0 ffffffff 24 800] ------- [36:255 -1:255 29 0] [0x2 2 1 [25 0] [37 4]] (REQUEST)
r 1.013317478 _1_ RTR  --- 0 AODV 48 [0 ffffffff 24 800] ------- [36:255 -1:255 29 0] [0x2 2 1 [25 0] [37 4]] (REQUEST)
r 1.013317499 _13_ RTR  --- 0 AODV 48 [0 ffffffff 24 800] ------- [36:255 -1:255 29 0] [0x2 2 1 [25 0] [37 4]] (REQUEST)
r 1.013317561 _31_ RTR  --- 0 AODV 48 [0 ffffffff 24 800] ------- [36:255 -1:255 29 0] [0x2 2 1 [25 0] [37 4]] (REQUEST)
r 1.013317561 _35_ RTR  --- 0 AODV 48 [0 ffffffff 24 800] ------- [36:255 -1:255 29 0] [0x2 2 1 [25 0] [37 4]] (REQUEST)
r 1.013317587 _38_ RTR  --- 0 AODV 48 [0 ffffffff 24 800] ------- [36:255 -1:255 29 0] [0x2 2 1 [25 0] [37 4]] (REQUEST)
r 1.013317592 _5_ RTR  --- 0 AODV 48 [0 ffffffff 24 800] ------- [36:255 -1:255 29 0] [0x2 2 1 [25 0] [37 4]] (REQUEST)
r 1.013317601 _32_ RTR  --- 0 AODV 48 [0 ffffffff 24 800] ------- [36:255 -1:255 29 0] [0x2 2 1 [25 0] [37 4]] (REQUEST)
r 1.013317612 _22_ RTR  --- 0 AODV 48 [0 ffffffff 24 800] ------- [36:255 -1:255 29 0] [0x2 2 1 [25 0] [37 4]] (REQUEST)
r 1.013317627 _7_ RTR  --- 0 AODV 48 [0 ffffffff 24 800] ------- [36:255 -1:255 29 0] [0x2 2 1 [25 0] [37 4]] (REQUEST)
r 1.013317668 _26_ RTR  --- 0 AODV 48 [0 ffffffff 24 800] ------- [36:255 -1:255 29 0] [0x2 2 1 [25 0] [37 4]] (REQUEST)
r 1.013317680 _29_ RTR  --- 0 AODV 48 [0 ffffffff 24 800] ------- [36:255 -1:255 29 0] [0x2 2 1 [25 0] [37 4]] (REQUEST)
s 1.013505059 _35_ RTR  --- 0 AODV 48 [0 ffffffff 25 800] ------- [35:255 -1:255 29 0] [0x2 2 1 [25 0] [37 4]] (REQUEST)
s 1.013710351 _5_ RTR  --- 0 AODV 48 [0 ffffffff 25 800] ------- [5:255 -1:255 29 0] [0x2 2 1 [25 0] [37 4]] (REQUEST)
s 1.013916051 _1_ RTR  --- 0 AODV 48 [0 ffffffff 25 800] ------- [1:255 -1:255 29 0] [0x2 2 1 [25 0] [37 4]] (REQUEST)
s 1.014170495 _23_ RTR  --- 0 AODV 48 [0 ffffffff 25 800] ------- [23:255 -1:255 29 0] [0x2 2 1 [25 0] [37 4]] (REQUEST)
s 1.014196483 _10_ RTR  --- 0 AODV 48 [0 ffffffff 25 800] ------- [10:255 -1:255 29 0] [0x2 2 1 [25 0] [37 4]] (REQUEST)
r 1.015529760 _20_ RTR  --- 0 AODV 48 [0 ffffffff 22 800] ------- [34:255 -1:255 29 0] [0x2 2 1 [25 0] [37 4]] (REQUEST)
r 1.015549714 _35_ RTR  --- 0 AODV 48 [0 ffffffff 1f 800] ------- [31:255 -1:255 29 0] [0x2 2 1 [25 0] [37 4]] (REQUEST)
r 1.015599691 _17_ RTR  --- 0 AODV 48 [0 ffffffff 4 800] ------- [4:255 -1:255 29 0] [0x2 2 1 [25 0] [37 4]] (REQUEST)
r 1.015611717 _12_ RTR  --- 0 AODV 48 [0 ffffffff 8 800] ------- [8:255 -1:255 29 0] [0x2 2 1 [25 0] [37 4]] (REQUEST)
r 1.015611727 _36_ RTR  --- 0 AODV 48 [0 ffffffff 8 800] ------- [8:255 -1:255 29 0] [0x2 2 1 [25 0] [37 4]] (REQUEST)
r 1.015611743 _24_ RTR  --- 0 AODV 48 [0 ffffffff 8 800] ------- [8:255 -1:255 29 0] [0x2 2 1 [25 0] [37 4]] (REQUEST)
r 1.017673916 _20_ RTR  --- 0 AODV 48 [0 ffffffff f 800] ------- [15:255 -1:255 29 0] [0x2 2 1 [25 0] [37 4]] (REQUEST)
r 1.017673932 _34_ RTR  --- 0 AODV 48 [0 ffffffff f 800] ------- [15:255 -1:255 29 0] [0x2 2 1 [25 0] [37 4]] (REQUEST)
r 1.017673997 _21_ RTR  --- 0 AODV 48 [0 ffffffff f 800] ------- [15:255 -1:255 29 0] [0x2 2 1 [25 0] [37 4]] (REQUEST)
r 1.017674027 _2_ RTR  --- 0 AODV 48 [0 ffffffff f 800] ------- [15:255 -1:255 29 0] [0x2 2 1 [25 0] [37 4]] (REQUEST)
r 1.017674057 _36_ RTR  --- 0 AODV 48 [0 ffffffff f 800] ------- [15:255 -1:255 29 0] [0x2 2 1 [25 0] [37 4]] (REQUEST)
r 1.017674058 _12_ RTR  --- 0 AODV 48 [0 ffffffff f 800] ------- [15:255 -1:255 29 0] [0x2 2 1 [25 0] [37 4]] (REQUEST)
r 1.017674061 _24_ RTR  --- 0 AODV 48 [0 ffffffff f 800] ------- [15:255 -1:255 29 0] [0x2 2 1 [25 0] [37 4]] (REQUEST)
r 1.017674061 _10_ RTR  --- 0 AODV 48 [0 ffffffff f 800] ------- [15:255 -1:255 29 0] [0x2 2 1 [25 0] [37 4]] (REQUEST)
r 1.017674064 _9_ RTR  --- 0 AODV 48 [0 ffffffff f 800] ------- [15:255 -1:255 29 0] [0x2 2 1 [25 0] [37 4]] (REQUEST)
r 1.017674099 _11_ RTR  --- 0 AODV 48 [0 ffffffff f 800] ------- [15:255 -1:255 29 0] [0x2 2 1 [25 0] [37 4]] (REQUEST)
r 1.017674190 _0_ RTR  --- 0 AODV 48 [0 ffffffff f 800] ------- [15:255 -1:255 29 0] [0x2 2 1 [25 0] [37 4]] (REQUEST)
r 1.017674240 _17_ RTR  --- 0 AODV 48 [0 ffffffff f 800] ------- [15:255 -1:255 29 0] [0x2 2 1 [25 0] [37 4]] (REQUEST)
r 1.017689160 _5_ RTR  --- 0 AODV 48 [0 ffffffff 16 800] ------- [22:255 -1:255 29 0] [0x2 2 1 [25 0] [37 4]] (REQUEST)
r 1.017689188 _13_ RTR  --- 0 AODV 48 [0 ffffffff 16 800] ------- [22:255 -1:255 29 0] [0x2 2 1 [25 0] [37 4]] (REQUEST)
r 1.017863743 _29_ RTR  --- 0 AODV 48 [0 ffffffff 10 800] ------- [16:255 -1:255 29 0] [0x2 2 1 [25 0] [37 4]] (REQUEST)
r 1.017863793 _38_ RTR  --- 0 AODV 48 [0 ffffffff 10 800] ------- [16:255 -1:255 29 0] [0x2 2 1 [25 0] [37 4]] (REQUEST)
r 1.020008010 _30_ RTR  --- 0 AODV 48 [0 ffffffff 17 800] ------- [23:255 -1:255 29 0] [0x2 2 1 [25 0] [37 4]] (REQUEST)
r 1.020008040 _19_ RTR  --- 0 AODV 48 [0 ffffffff 17 800] ------- [23:255 -1:255 29 0] [0x2 2 1 [25 0] [37 4]] (REQUEST)
r 1.020008054 _3_ RTR  --- 0 AODV 48 [0 ffffffff 17 800] ------- [23:255 -1:255 29 0] [0x2 2 1 [25 0] [37 4]] (REQUEST)
r 1.020008072 _31_ RTR  --- 0 AODV 48 [0 ffffffff 17 800] ------- [23:255 -1:255 29 0] [0x2 2 1 [25 0] [37 4]] (REQUEST)
r 1.020008079 _38_ RTR  --- 0 AODV 48 [0 ffffffff 17 800] ------- [23:255 -1:255 29 0] [0x2 2 1 [25 0] [37 4]] (REQUEST)
r 1.020008117 _33_ RTR  --- 0 AODV 48 [0 ffffffff 17 800] ------- [23:255 -1:255 29 0] [0x2 2 1 [25 0] [37 4]] (REQUEST)
r 1.020008125 _28_ RTR  --- 0 AODV 48 [0 ffffffff 17 800] ------- [23:255 -1:255 29 0] [0x2 2 1 [25 0] [37 4]] (REQUEST)
r 1.020008125 _6_ RTR  --- 0 AODV 48 [0 ffffffff 17 800] ------- [23:255 -1:255 29 0] [0x2 2 1 [25 0] [37 4]] (REQUEST)
r 1.020008125 _35_ RTR  --- 0 AODV 48 [0 ffffffff 17 800] ------- [23:255 -1:255 29 0] [0x2 2 1 [25 0] [37 4]] (REQUEST)
r 1.020008163 _32_ RTR  --- 0 AODV 48 [0 ffffffff 17 800] ------- [23:255 -1:255 29 0] [0x2 2 1 [25 0] [37 4]] (REQUEST)
r 1.020008163 _18_ RTR  --- 0 AODV 48 [0 ffffffff 17 800] ------- [23:255 -1:255 29 0] [0x2 2 1 [25 0] [37 4]] (REQUEST)
r 1.020008169 _10_ RTR  --- 0 AODV 48 [0 ffffffff 17 800] ------- [23:255 -1:255 29 0] [0x2 2 1 [25 0] [37 4]] (REQUEST)
r 1.020008172 _1_ RTR  --- 0 AODV 48 [0 ffffffff 17 800] ------- [23:255 -1:255 29 0] [0x2 2 1 [25 0] [37 4]] (REQUEST)
r 1.020008201 _29_ RTR  --- 0 AODV 48 [0 ffffffff 17 800] ------- [23:255 -1:255 29 0] [0x2 2 1 [25 0] [37 4]] (REQUEST)
r 1.020008256 _27_ RTR  --- 0 AODV 48 [0 ffffffff 17 800] ------- [23:255 -1:255 29 0] [0x2 2 1 [25 0] [37 4]] (REQUEST)
r 1.020008260 _25_ RTR  --- 0 AODV 48 [0 ffffffff 17 800] ------- [23:255 -1:255 29 0] [0x2 2 1 [25 0] [37 4]] (REQUEST)
r 1.020008267 _26_ RTR  --- 0 AODV 48 [0 ffffffff 17 800] ------- [23:255 -1:255 29 0] [0x2 2 1 [25 0] [37 4]] (REQUEST)
r 1.020008270 _7_ RTR  --- 0 AODV 48 [0 ffffffff 17 800] ------- [23:255 -1:255 29 0] [0x2 2 1 [25 0] [37 4]] (REQUEST)
r 1.020008278 _16_ RTR  --- 0 AODV 48 [0 ffffffff 17 800] ------- [23:255 -1:255 29 0] [0x2 2 1 [25 0] [37 4]] (REQUEST)
r 1.020008293 _2_ RTR  --- 0 AODV 48 [0 ffffffff 17 800] ------- [23:255 -1:255 29 0] [0x2 2 1 [25 0] [37 4]] (REQUEST)
r 1.020008323 _9_ RTR  --- 0 AODV 48 [0 ffffffff 17 800] ------- [23:255 -1:255 29 0] [0x2 2 1 [25 0] [37 4]] (REQUEST)
r 1.020008323 _21_ RTR  --- 0 AODV 48 [0 ffffffff 17 800] ------- [23:255 -1:255 29 0] [0x2 2 1 [25 0] [37 4]] (REQUEST)
r 1.020008358 _5_ RTR  --- 0 AODV 48 [0 ffffffff 17 800] ------- [23:255 -1:255 29 0] [0x2 2 1 [25 0] [37 4]] (REQUEST)
r 1.020008359 _0_ RTR  --- 0 AODV 48 [0 ffffffff 17 800] ------- [23:255 -1:255 29 0] [0x2 2 1 [25 0] [37 4]] (REQUEST)
r 1.020008361 _14_ RTR  --- 0 AODV 48 [0 ffffffff 17 800] ------- [23:255 -1:255 29 0] [0x2 2 1 [25 0] [37 4]] (REQUEST)
r 1.020008362 _13_ RTR  --- 0 AODV 48 [0 ffffffff 17 800] ------- [23:255 -1:255 29 0] [0x2 2 1 [25 0] [37 4]] (REQUEST)
r 1.020008392 _15_ RTR  --- 0 AODV 48 [0 ffffffff 17 800] ------- [23:255 -1:255 29 0] [0x2 2 1 [25 0] [37 4]] (REQUEST)
r 1.020008411 _11_ RTR  --- 0 AODV 48 [0 ffffffff 17 800] ------- [23:255 -1:255 29 0] [0x2 2 1 [25 0] [37 4]] (REQUEST)
r 1.020008418 _39_ RTR  --- 0 AODV 48 [0 ffffffff 17 800] ------- [23:255 -1:255 29 0] [0x2 2 1 [25 0] [37 4]] (REQUEST)
r 1.020008422 _37_ RTR  --- 0 AODV 48 [0 ffffffff 17 800] ------- [23:255 -1:255 29 0] [0x2 2 1 [25 0] [37 4]] (REQUEST)
r 1.020008426 _20_ RTR  --- 0 AODV 48 [0 ffffffff 17 800] ------- [23:255 -1:255 29 0] [0x2 2 1 [25 0] [37 4]] (REQUEST)
r 1.020008437 _34_ RTR  --- 0 AODV 48 [0 ffffffff 17 800] ------- [23:255 -1:255 29 0] [0x2 2 1 [25 0] [37 4]] (REQUEST)
r 1.020008437 _22_ RTR  --- 0 AODV 48 [0 ffffffff 17 800] ------- [23:255 -1:255 29 0] [0x2 2 1 [25 0] [37 4]] (REQUEST)
r 1.020008452 _4_ RTR  --- 0 AODV 48 [0 ffffffff 17 800] ------- [23:255 -1:255 29 0] [0x2 2 1 [25 0] [37 4]] (REQUEST)
r 1.020008487 _8_ RTR  --- 0 AODV 48 [0 ffffffff 17 800] ------- [23:255 -1:255 29 0] [0x2 2 1 [25 0] [37 4]] (REQUEST)
r 1.020008489 _17_ RTR  --- 0 AODV 48 [0 ffffffff 17 800] ------- [23:255 -1:255 29 0] [0x2 2 1 [25 0] [37 4]] (REQUEST)
r 1.020008511 _12_ RTR  --- 0 AODV 48 [0 ffffffff 17 800] ------- [23:255 -1:255 29 0] [0x2 2 1 [25 0] [37 4]] (REQUEST)
r 1.020008534 _36_ RTR  --- 0 AODV 48 [0 ffffffff 17 800] ------- [23:255 -1:255 29 0] [0x2 2 1 [25 0] [37 4]] (REQUEST)
r 1.020008550 _24_ RTR  --- 0 AODV 48 [0 ffffffff 17 800] ------- [23:255 -1:255 29 0] [0x2 2 1 [25 0] [37 4]] (REQUEST)